n -t * -s 0  -x 0 -y 0 -Z 0 -z 40  -v circle -c black
n -t * -s 1  -x 0 -y 0 -Z 0 -z 40  -v circle -c black
V -t * -v 1.0a5 -a 0
W -t * -x 500 -y 400
A -t * -n 1 -p 0 -o 0x7fffffff -c 30 -a 1
A -t * -h 1 -m 1073741823 -s 0
+ -t 0.029290548 -s 1 -d -1 -p message -e 32 -c 2 -a 0 -i 0 -k RTR 
- -t 0.029290548 -s 1 -d -1 -p message -e 32 -c 2 -a 0 -i 0 -k RTR
h -t 0.029290548 -s 1 -d -1 -p message -e 32 -c 2 -a 0 -i 0 -k RTR
r -t 0.030110548 -s 0 -d -1 -p message -e 32 -c 2 -a 0 -i 0 -k RTR
+ -t 0.200000000 -s 0 -d -1 -p tcp -e 40 -c 2 -a 0 -i 1 -k AGT 
- -t 0.200000000 -s 0 -d -1 -p tcp -e 40 -c 2 -a 0 -i 1 -k AGT
h -t 0.200000000 -s 0 -d -1 -p tcp -e 40 -c 2 -a 0 -i 1 -k AGT
+ -t 0.200000000 -s 0 -d 1 -p tcp -e 60 -c 2 -a 0 -i 1 -k RTR 
- -t 0.200000000 -s 0 -d 1 -p tcp -e 60 -c 2 -a 0 -i 1 -k RTR
h -t 0.200000000 -s 0 -d 1 -p tcp -e 60 -c 2 -a 0 -i 1 -k RTR
r -t 0.204991000 -s 1 -d 1 -p tcp -e 60 -c 2 -a 0 -i 1 -k AGT
+ -t 0.204991000 -s 1 -d -1 -p ack -e 40 -c 2 -a 0 -i 2 -k AGT 
- -t 0.204991000 -s 1 -d -1 -p ack -e 40 -c 2 -a 0 -i 2 -k AGT
h -t 0.204991000 -s 1 -d -1 -p ack -e 40 -c 2 -a 0 -i 2 -k AGT
n -t 0.500000 -s 0 -x 0.000000 -y 0.000000 -U 28.284271 -V 28.284271 -T 8.838835
n -t 0.600000 -s 1 -x 0.000000 -y 0.000000 -U 12.477006 -V 79.021037 -T 3.606635
+ -t 1.112189378 -s 0 -d -1 -p message -e 32 -c 2 -a 0 -i 3 -k RTR 
- -t 1.112189378 -s 0 -d -1 -p message -e 32 -c 2 -a 0 -i 3 -k RTR
h -t 1.112189378 -s 0 -d -1 -p message -e 32 -c 2 -a 0 -i 3 -k RTR
r -t 1.113369463 -s 1 -d -1 -p message -e 32 -c 2 -a 0 -i 3 -k RTR
+ -t 1.113369463 -s 1 -d 0 -p ack -e 80 -c 2 -a 0 -i 2 -k RTR 
- -t 1.113369463 -s 1 -d 0 -p ack -e 80 -c 2 -a 0 -i 2 -k RTR
h -t 1.113369463 -s 1 -d 0 -p ack -e 80 -c 2 -a 0 -i 2 -k RTR
r -t 1.115409720 -s 0 -d 0 -p ack -e 80 -c 2 -a 0 -i 2 -k AGT
+ -t 1.115409720 -s 0 -d -1 -p tcp -e 1040 -c 2 -a 0 -i 4 -k AGT 
- -t 1.115409720 -s 0 -d -1 -p tcp -e 1040 -c 2 -a 0 -i 4 -k AGT
h -t 1.115409720 -s 0 -d -1 -p tcp -e 1040 -c 2 -a 0 -i 4 -k AGT
+ -t 1.115409720 -s 0 -d 1 -p tcp -e 1060 -c 2 -a 0 -i 4 -k RTR 
- -t 1.115409720 -s 0 -d 1 -p tcp -e 1060 -c 2 -a 0 -i 4 -k RTR
h -t 1.115409720 -s 0 -d 1 -p tcp -e 1060 -c 2 -a 0 -i 4 -k RTR
+ -t 1.115409720 -s 0 -d -1 -p tcp -e 1040 -c 2 -a 0 -i 5 -k AGT 
- -t 1.115409720 -s 0 -d -1 -p tcp -e 1040 -c 2 -a 0 -i 5 -k AGT
h -t 1.115409720 -s 0 -d -1 -p tcp -e 1040 -c 2 -a 0 -i 5 -k AGT
+ -t 1.115409720 -s 0 -d 1 -p tcp -e 1060 -c 2 -a 0 -i 5 -k RTR 
- -t 1.115409720 -s 0 -d 1 -p tcp -e 1060 -c 2 -a 0 -i 5 -k RTR
h -t 1.115409720 -s 0 -d 1 -p tcp -e 1060 -c 2 -a 0 -i 5 -k RTR
r -t 1.125433978 -s 1 -d 1 -p tcp -e 1060 -c 2 -a 0 -i 4 -k AGT
+ -t 1.125433978 -s 1 -d -1 -p ack -e 40 -c 2 -a 0 -i 6 -k AGT 
- -t 1.125433978 -s 1 -d -1 -p ack -e 40 -c 2 -a 0 -i 6 -k AGT
h -t 1.125433978 -s 1 -d -1 -p ack -e 40 -c 2 -a 0 -i 6 -k AGT
+ -t 1.125433978 -s 1 -d 0 -p ack -e 60 -c 2 -a 0 -i 6 -k RTR 
- -t 1.125433978 -s 1 -d 0 -p ack -e 60 -c 2 -a 0 -i 6 -k RTR
h -t 1.125433978 -s 1 -d 0 -p ack -e 60 -c 2 -a 0 -i 6 -k RTR
r -t 1.135758329 -s 1 -d 1 -p tcp -e 1060 -c 2 -a 0 -i 5 -k AGT
+ -t 1.135758329 -s 1 -d -1 -p ack -e 40 -c 2 -a 0 -i 7 -k AGT 
- -t 1.135758329 -s 1 -d -1 -p ack -e 40 -c 2 -a 0 -i 7 -k AGT
h -t 1.135758329 -s 1 -d -1 -p ack -e 40 -c 2 -a 0 -i 7 -k AGT
+ -t 1.135758329 -s 1 -d 0 -p ack -e 60 -c 2 -a 0 -i 7 -k RTR 
- -t 1.135758329 -s 1 -d 0 -p ack -e 60 -c 2 -a 0 -i 7 -k RTR
h -t 1.135758329 -s 1 -d 0 -p ack -e 60 -c 2 -a 0 -i 7 -k RTR
r -t 1.137842598 -s 0 -d 0 -p ack -e 60 -c 2 -a 0 -i 6 -k AGT
+ -t 1.137842598 -s 0 -d -1 -p tcp -e 1040 -c 2 -a 0 -i 8 -k AGT 
- -t 1.137842598 -s 0 -d -1 -p tcp -e 1040 -c 2 -a 0 -i 8 -k AGT
h -t 1.137842598 -s 0 -d -1 -p tcp -e 1040 -c 2 -a 0 -i 8 -k AGT
+ -t 1.137842598 -s 0 -d 1 -p tcp -e 1060 -c 2 -a 0 -i 8 -k RTR 
- -t 1.137842598 -s 0 -d 1 -p tcp -e 1060 -c 2 -a 0 -i 8 -k RTR
h -t 1.137842598 -s 0 -d 1 -p tcp -e 1060 -c 2 -a 0 -i 8 -k RTR
+ -t 1.137842598 -s 0 -d -1 -p tcp -e 1040 -c 2 -a 0 -i 9 -k AGT 
- -t 1.137842598 -s 0 -d -1 -p tcp -e 1040 -c 2 -a 0 -i 9 -k AGT
h -t 1.137842598 -s 0 -d -1 -p tcp -e 1040 -c 2 -a 0 -i 9 -k AGT
+ -t 1.137842598 -s 0 -d 1 -p tcp -e 1060 -c 2 -a 0 -i 9 -k RTR 
- -t 1.137842598 -s 0 -d 1 -p tcp -e 1060 -c 2 -a 0 -i 9 -k RTR
h -t 1.137842598 -s 0 -d 1 -p tcp -e 1060 -c 2 -a 0 -i 9 -k RTR
r -t 1.140026958 -s 0 -d 0 -p ack -e 60 -c 2 -a 0 -i 7 -k AGT
+ -t 1.140026958 -s 0 -d -1 -p tcp -e 1040 -c 2 -a 0 -i 10 -k AGT 
- -t 1.140026958 -s 0 -d -1 -p tcp -e 1040 -c 2 -a 0 -i 10 -k AGT
h -t 1.140026958 -s 0 -d -1 -p tcp -e 1040 -c 2 -a 0 -i 10 -k AGT
+ -t 1.140026958 -s 0 -d 1 -p tcp -e 1060 -c 2 -a 0 -i 10 -k RTR 
- -t 1.140026958 -s 0 -d 1 -p tcp -e 1060 -c 2 -a 0 -i 10 -k RTR
h -t 1.140026958 -s 0 -d 1 -p tcp -e 1060 -c 2 -a 0 -i 10 -k RTR
+ -t 1.140026958 -s 0 -d -1 -p tcp -e 1040 -c 2 -a 0 -i 11 -k AGT 
- -t 1.140026958 -s 0 -d -1 -p tcp -e 1040 -c 2 -a 0 -i 11 -k AGT
h -t 1.140026958 -s 0 -d -1 -p tcp -e 1040 -c 2 -a 0 -i 11 -k AGT
+ -t 1.140026958 -s 0 -d 1 -p tcp -e 1060 -c 2 -a 0 -i 11 -k RTR 
- -t 1.140026958 -s 0 -d 1 -p tcp -e 1060 -c 2 -a 0 -i 11 -k RTR
h -t 1.140026958 -s 0 -d 1 -p tcp -e 1060 -c 2 -a 0 -i 11 -k RTR
r -t 1.150031229 -s 1 -d 1 -p tcp -e 1060 -c 2 -a 0 -i 8 -k AGT
+ -t 1.150031229 -s 1 -d -1 -p ack -e 40 -c 2 -a 0 -i 12 -k AGT 
- -t 1.150031229 -s 1 -d -1 -p ack -e 40 -c 2 -a 0 -i 12 -k AGT
h -t 1.150031229 -s 1 -d -1 -p ack -e 40 -c 2 -a 0 -i 12 -k AGT
+ -t 1.150031229 -s 1 -d 0 -p ack -e 60 -c 2 -a 0 -i 12 -k RTR 
- -t 1.150031229 -s 1 -d 0 -p ack -e 60 -c 2 -a 0 -i 12 -k RTR
h -t 1.150031229 -s 1 -d 0 -p ack -e 60 -c 2 -a 0 -i 12 -k RTR
r -t 1.160035598 -s 1 -d 1 -p tcp -e 1060 -c 2 -a 0 -i 9 -k AGT
+ -t 1.160035598 -s 1 -d -1 -p ack -e 40 -c 2 -a 0 -i 13 -k AGT 
- -t 1.160035598 -s 1 -d -1 -p ack -e 40 -c 2 -a 0 -i 13 -k AGT
h -t 1.160035598 -s 1 -d -1 -p ack -e 40 -c 2 -a 0 -i 13 -k AGT
+ -t 1.160035598 -s 1 -d 0 -p ack -e 60 -c 2 -a 0 -i 13 -k RTR 
- -t 1.160035598 -s 1 -d 0 -p ack -e 60 -c 2 -a 0 -i 13 -k RTR
h -t 1.160035598 -s 1 -d 0 -p ack -e 60 -c 2 -a 0 -i 13 -k RTR
r -t 1.162199879 -s 0 -d 0 -p ack -e 60 -c 2 -a 0 -i 12 -k AGT
+ -t 1.162199879 -s 0 -d -1 -p tcp -e 1040 -c 2 -a 0 -i 14 -k AGT 
- -t 1.162199879 -s 0 -d -1 -p tcp -e 1040 -c 2 -a 0 -i 14 -k AGT
h -t 1.162199879 -s 0 -d -1 -p tcp -e 1040 -c 2 -a 0 -i 14 -k AGT
+ -t 1.162199879 -s 0 -d 1 -p tcp -e 1060 -c 2 -a 0 -i 14 -k RTR 
- -t 1.162199879 -s 0 -d 1 -p tcp -e 1060 -c 2 -a 0 -i 14 -k RTR
h -t 1.162199879 -s 0 -d 1 -p tcp -e 1060 -c 2 -a 0 -i 14 -k RTR
+ -t 1.162199879 -s 0 -d -1 -p tcp -e 1040 -c 2 -a 0 -i 15 -k AGT 
- -t 1.162199879 -s 0 -d -1 -p tcp -e 1040 -c 2 -a 0 -i 15 -k AGT
h -t 1.162199879 -s 0 -d -1 -p tcp -e 1040 -c 2 -a 0 -i 15 -k AGT
+ -t 1.162199879 -s 0 -d 1 -p tcp -e 1060 -c 2 -a 0 -i 15 -k RTR 
- -t 1.162199879 -s 0 -d 1 -p tcp -e 1060 -c 2 -a 0 -i 15 -k RTR
h -t 1.162199879 -s 0 -d 1 -p tcp -e 1060 -c 2 -a 0 -i 15 -k RTR
r -t 1.172244162 -s 1 -d 1 -p tcp -e 1060 -c 2 -a 0 -i 10 -k AGT
+ -t 1.172244162 -s 1 -d -1 -p ack -e 40 -c 2 -a 0 -i 16 -k AGT 
- -t 1.172244162 -s 1 -d -1 -p ack -e 40 -c 2 -a 0 -i 16 -k AGT
h -t 1.172244162 -s 1 -d -1 -p ack -e 40 -c 2 -a 0 -i 16 -k AGT
+ -t 1.172244162 -s 1 -d 0 -p ack -e 60 -c 2 -a 0 -i 16 -k RTR 
- -t 1.172244162 -s 1 -d 0 -p ack -e 60 -c 2 -a 0 -i 16 -k RTR
h -t 1.172244162 -s 1 -d 0 -p ack -e 60 -c 2 -a 0 -i 16 -k RTR
r -t 1.182408546 -s 1 -d 1 -p tcp -e 1060 -c 2 -a 0 -i 11 -k AGT
+ -t 1.182408546 -s 1 -d -1 -p ack -e 40 -c 2 -a 0 -i 17 -k AGT 
- -t 1.182408546 -s 1 -d -1 -p ack -e 40 -c 2 -a 0 -i 17 -k AGT
h -t 1.182408546 -s 1 -d -1 -p ack -e 40 -c 2 -a 0 -i 17 -k AGT
+ -t 1.182408546 -s 1 -d 0 -p ack -e 60 -c 2 -a 0 -i 17 -k RTR 
- -t 1.182408546 -s 1 -d 0 -p ack -e 60 -c 2 -a 0 -i 17 -k RTR
h -t 1.182408546 -s 1 -d 0 -p ack -e 60 -c 2 -a 0 -i 17 -k RTR
r -t 1.184592840 -s 0 -d 0 -p ack -e 60 -c 2 -a 0 -i 13 -k AGT
+ -t 1.184592840 -s 0 -d -1 -p tcp -e 1040 -c 2 -a 0 -i 18 -k AGT 
- -t 1.184592840 -s 0 -d -1 -p tcp -e 1040 -c 2 -a 0 -i 18 -k AGT
h -t 1.184592840 -s 0 -d -1 -p tcp -e 1040 -c 2 -a 0 -i 18 -k AGT
+ -t 1.184592840 -s 0 -d 1 -p tcp -e 1060 -c 2 -a 0 -i 18 -k RTR 
- -t 1.184592840 -s 0 -d 1 -p tcp -e 1060 -c 2 -a 0 -i 18 -k RTR
h -t 1.184592840 -s 0 -d 1 -p tcp -e 1060 -c 2 -a 0 -i 18 -k RTR
+ -t 1.184592840 -s 0 -d -1 -p tcp -e 1040 -c 2 -a 0 -i 19 -k AGT 
- -t 1.184592840 -s 0 -d -1 -p tcp -e 1040 -c 2 -a 0 -i 19 -k AGT
h -t 1.184592840 -s 0 -d -1 -p tcp -e 1040 -c 2 -a 0 -i 19 -k AGT
+ -t 1.184592840 -s 0 -d 1 -p tcp -e 1060 -c 2 -a 0 -i 19 -k RTR 
- -t 1.184592840 -s 0 -d 1 -p tcp -e 1060 -c 2 -a 0 -i 19 -k RTR
h -t 1.184592840 -s 0 -d 1 -p tcp -e 1060 -c 2 -a 0 -i 19 -k RTR
r -t 1.194957134 -s 1 -d 1 -p tcp -e 1060 -c 2 -a 0 -i 14 -k AGT
+ -t 1.194957134 -s 1 -d -1 -p ack -e 40 -c 2 -a 0 -i 20 -k AGT 
- -t 1.194957134 -s 1 -d -1 -p ack -e 40 -c 2 -a 0 -i 20 -k AGT
h -t 1.194957134 -s 1 -d -1 -p ack -e 40 -c 2 -a 0 -i 20 -k AGT
+ -t 1.194957134 -s 1 -d 0 -p ack -e 60 -c 2 -a 0 -i 20 -k RTR 
- -t 1.194957134 -s 1 -d 0 -p ack -e 60 -c 2 -a 0 -i 20 -k RTR
h -t 1.194957134 -s 1 -d 0 -p ack -e 60 -c 2 -a 0 -i 20 -k RTR
r -t 1.196961434 -s 0 -d 0 -p ack -e 60 -c 2 -a 0 -i 16 -k AGT
+ -t 1.196961434 -s 0 -d -1 -p tcp -e 1040 -c 2 -a 0 -i 21 -k AGT 
- -t 1.196961434 -s 0 -d -1 -p tcp -e 1040 -c 2 -a 0 -i 21 -k AGT
h -t 1.196961434 -s 0 -d -1 -p tcp -e 1040 -c 2 -a 0 -i 21 -k AGT
+ -t 1.196961434 -s 0 -d 1 -p tcp -e 1060 -c 2 -a 0 -i 21 -k RTR 
- -t 1.196961434 -s 0 -d 1 -p tcp -e 1060 -c 2 -a 0 -i 21 -k RTR
h -t 1.196961434 -s 0 -d 1 -p tcp -e 1060 -c 2 -a 0 -i 21 -k RTR
+ -t 1.196961434 -s 0 -d -1 -p tcp -e 1040 -c 2 -a 0 -i 22 -k AGT 
- -t 1.196961434 -s 0 -d -1 -p tcp -e 1040 -c 2 -a 0 -i 22 -k AGT
h -t 1.196961434 -s 0 -d -1 -p tcp -e 1040 -c 2 -a 0 -i 22 -k AGT
+ -t 1.196961434 -s 0 -d 1 -p tcp -e 1060 -c 2 -a 0 -i 22 -k RTR 
- -t 1.196961434 -s 0 -d 1 -p tcp -e 1060 -c 2 -a 0 -i 22 -k RTR
h -t 1.196961434 -s 0 -d 1 -p tcp -e 1060 -c 2 -a 0 -i 22 -k RTR
r -t 1.199305836 -s 0 -d 0 -p ack -e 60 -c 2 -a 0 -i 17 -k AGT
+ -t 1.199305836 -s 0 -d -1 -p tcp -e 1040 -c 2 -a 0 -i 23 -k AGT 
- -t 1.199305836 -s 0 -d -1 -p tcp -e 1040 -c 2 -a 0 -i 23 -k AGT
h -t 1.199305836 -s 0 -d -1 -p tcp -e 1040 -c 2 -a 0 -i 23 -k AGT
+ -t 1.199305836 -s 0 -d 1 -p tcp -e 1060 -c 2 -a 0 -i 23 -k RTR 
- -t 1.199305836 -s 0 -d 1 -p tcp -e 1060 -c 2 -a 0 -i 23 -k RTR
h -t 1.199305836 -s 0 -d 1 -p tcp -e 1060 -c 2 -a 0 -i 23 -k RTR
+ -t 1.199305836 -s 0 -d -1 -p tcp -e 1040 -c 2 -a 0 -i 24 -k AGT 
- -t 1.199305836 -s 0 -d -1 -p tcp -e 1040 -c 2 -a 0 -i 24 -k AGT
h -t 1.199305836 -s 0 -d -1 -p tcp -e 1040 -c 2 -a 0 -i 24 -k AGT
+ -t 1.199305836 -s 0 -d 1 -p tcp -e 1060 -c 2 -a 0 -i 24 -k RTR 
- -t 1.199305836 -s 0 -d 1 -p tcp -e 1060 -c 2 -a 0 -i 24 -k RTR
h -t 1.199305836 -s 0 -d 1 -p tcp -e 1060 -c 2 -a 0 -i 24 -k RTR
r -t 1.201330239 -s 0 -d 0 -p ack -e 60 -c 2 -a 0 -i 20 -k AGT
+ -t 1.201330239 -s 0 -d -1 -p tcp -e 1040 -c 2 -a 0 -i 25 -k AGT 
- -t 1.201330239 -s 0 -d -1 -p tcp -e 1040 -c 2 -a 0 -i 25 -k AGT
h -t 1.201330239 -s 0 -d -1 -p tcp -e 1040 -c 2 -a 0 -i 25 -k AGT
+ -t 1.201330239 -s 0 -d 1 -p tcp -e 1060 -c 2 -a 0 -i 25 -k RTR 
- -t 1.201330239 -s 0 -d 1 -p tcp -e 1060 -c 2 -a 0 -i 25 -k RTR
h -t 1.201330239 -s 0 -d 1 -p tcp -e 1060 -c 2 -a 0 -i 25 -k RTR
+ -t 1.201330239 -s 0 -d -1 -p tcp -e 1040 -c 2 -a 0 -i 26 -k AGT 
- -t 1.201330239 -s 0 -d -1 -p tcp -e 1040 -c 2 -a 0 -i 26 -k AGT
h -t 1.201330239 -s 0 -d -1 -p tcp -e 1040 -c 2 -a 0 -i 26 -k AGT
+ -t 1.201330239 -s 0 -d 1 -p tcp -e 1060 -c 2 -a 0 -i 26 -k RTR 
- -t 1.201330239 -s 0 -d 1 -p tcp -e 1060 -c 2 -a 0 -i 26 -k RTR
h -t 1.201330239 -s 0 -d 1 -p tcp -e 1060 -c 2 -a 0 -i 26 -k RTR
r -t 1.211434543 -s 1 -d 1 -p tcp -e 1060 -c 2 -a 0 -i 15 -k AGT
+ -t 1.211434543 -s 1 -d -1 -p ack -e 40 -c 2 -a 0 -i 27 -k AGT 
- -t 1.211434543 -s 1 -d -1 -p ack -e 40 -c 2 -a 0 -i 27 -k AGT
h -t 1.211434543 -s 1 -d -1 -p ack -e 40 -c 2 -a 0 -i 27 -k AGT
+ -t 1.211434543 -s 1 -d 0 -p ack -e 60 -c 2 -a 0 -i 27 -k RTR 
- -t 1.211434543 -s 1 -d 0 -p ack -e 60 -c 2 -a 0 -i 27 -k RTR
h -t 1.211434543 -s 1 -d 0 -p ack -e 60 -c 2 -a 0 -i 27 -k RTR
r -t 1.213598851 -s 0 -d 0 -p ack -e 60 -c 2 -a 0 -i 27 -k AGT
+ -t 1.213598851 -s 0 -d -1 -p tcp -e 1040 -c 2 -a 0 -i 28 -k AGT 
- -t 1.213598851 -s 0 -d -1 -p tcp -e 1040 -c 2 -a 0 -i 28 -k AGT
h -t 1.213598851 -s 0 -d -1 -p tcp -e 1040 -c 2 -a 0 -i 28 -k AGT
+ -t 1.213598851 -s 0 -d 1 -p tcp -e 1060 -c 2 -a 0 -i 28 -k RTR 
- -t 1.213598851 -s 0 -d 1 -p tcp -e 1060 -c 2 -a 0 -i 28 -k RTR
h -t 1.213598851 -s 0 -d 1 -p tcp -e 1060 -c 2 -a 0 -i 28 -k RTR
+ -t 1.213598851 -s 0 -d -1 -p tcp -e 1040 -c 2 -a 0 -i 29 -k AGT 
- -t 1.213598851 -s 0 -d -1 -p tcp -e 1040 -c 2 -a 0 -i 29 -k AGT
h -t 1.213598851 -s 0 -d -1 -p tcp -e 1040 -c 2 -a 0 -i 29 -k AGT
+ -t 1.213598851 -s 0 -d 1 -p tcp -e 1060 -c 2 -a 0 -i 29 -k RTR 
- -t 1.213598851 -s 0 -d 1 -p tcp -e 1060 -c 2 -a 0 -i 29 -k RTR
h -t 1.213598851 -s 0 -d 1 -p tcp -e 1060 -c 2 -a 0 -i 29 -k RTR
r -t 1.223763161 -s 1 -d 1 -p tcp -e 1060 -c 2 -a 0 -i 18 -k AGT
+ -t 1.223763161 -s 1 -d -1 -p ack -e 40 -c 2 -a 0 -i 30 -k AGT 
- -t 1.223763161 -s 1 -d -1 -p ack -e 40 -c 2 -a 0 -i 30 -k AGT
h -t 1.223763161 -s 1 -d -1 -p ack -e 40 -c 2 -a 0 -i 30 -k AGT
+ -t 1.223763161 -s 1 -d 0 -p ack -e 60 -c 2 -a 0 -i 30 -k RTR 
- -t 1.223763161 -s 1 -d 0 -p ack -e 60 -c 2 -a 0 -i 30 -k RTR
h -t 1.223763161 -s 1 -d 0 -p ack -e 60 -c 2 -a 0 -i 30 -k RTR
r -t 1.225827477 -s 0 -d 0 -p ack -e 60 -c 2 -a 0 -i 30 -k AGT
+ -t 1.225827477 -s 0 -d -1 -p tcp -e 1040 -c 2 -a 0 -i 31 -k AGT 
- -t 1.225827477 -s 0 -d -1 -p tcp -e 1040 -c 2 -a 0 -i 31 -k AGT
h -t 1.225827477 -s 0 -d -1 -p tcp -e 1040 -c 2 -a 0 -i 31 -k AGT
+ -t 1.225827477 -s 0 -d 1 -p tcp -e 1060 -c 2 -a 0 -i 31 -k RTR 
- -t 1.225827477 -s 0 -d 1 -p tcp -e 1060 -c 2 -a 0 -i 31 -k RTR
h -t 1.225827477 -s 0 -d 1 -p tcp -e 1060 -c 2 -a 0 -i 31 -k RTR
+ -t 1.225827477 -s 0 -d -1 -p tcp -e 1040 -c 2 -a 0 -i 32 -k AGT 
- -t 1.225827477 -s 0 -d -1 -p tcp -e 1040 -c 2 -a 0 -i 32 -k AGT
h -t 1.225827477 -s 0 -d -1 -p tcp -e 1040 -c 2 -a 0 -i 32 -k AGT
+ -t 1.225827477 -s 0 -d 1 -p tcp -e 1060 -c 2 -a 0 -i 32 -k RTR 
- -t 1.225827477 -s 0 -d 1 -p tcp -e 1060 -c 2 -a 0 -i 32 -k RTR
h -t 1.225827477 -s 0 -d 1 -p tcp -e 1060 -c 2 -a 0 -i 32 -k RTR
r -t 1.236011793 -s 1 -d 1 -p tcp -e 1060 -c 2 -a 0 -i 19 -k AGT
+ -t 1.236011793 -s 1 -d -1 -p ack -e 40 -c 2 -a 0 -i 33 -k AGT 
- -t 1.236011793 -s 1 -d -1 -p ack -e 40 -c 2 -a 0 -i 33 -k AGT
h -t 1.236011793 -s 1 -d -1 -p ack -e 40 -c 2 -a 0 -i 33 -k AGT
+ -t 1.236011793 -s 1 -d 0 -p ack -e 60 -c 2 -a 0 -i 33 -k RTR 
- -t 1.236011793 -s 1 -d 0 -p ack -e 60 -c 2 -a 0 -i 33 -k RTR
h -t 1.236011793 -s 1 -d 0 -p ack -e 60 -c 2 -a 0 -i 33 -k RTR
r -t 1.238096115 -s 0 -d 0 -p ack -e 60 -c 2 -a 0 -i 33 -k AGT
+ -t 1.238096115 -s 0 -d -1 -p tcp -e 1040 -c 2 -a 0 -i 34 -k AGT 
- -t 1.238096115 -s 0 -d -1 -p tcp -e 1040 -c 2 -a 0 -i 34 -k AGT
h -t 1.238096115 -s 0 -d -1 -p tcp -e 1040 -c 2 -a 0 -i 34 -k AGT
+ -t 1.238096115 -s 0 -d 1 -p tcp -e 1060 -c 2 -a 0 -i 34 -k RTR 
- -t 1.238096115 -s 0 -d 1 -p tcp -e 1060 -c 2 -a 0 -i 34 -k RTR
h -t 1.238096115 -s 0 -d 1 -p tcp -e 1060 -c 2 -a 0 -i 34 -k RTR
+ -t 1.238096115 -s 0 -d -1 -p tcp -e 1040 -c 2 -a 0 -i 35 -k AGT 
- -t 1.238096115 -s 0 -d -1 -p tcp -e 1040 -c 2 -a 0 -i 35 -k AGT
h -t 1.238096115 -s 0 -d -1 -p tcp -e 1040 -c 2 -a 0 -i 35 -k AGT
+ -t 1.238096115 -s 0 -d 1 -p tcp -e 1060 -c 2 -a 0 -i 35 -k RTR 
- -t 1.238096115 -s 0 -d 1 -p tcp -e 1060 -c 2 -a 0 -i 35 -k RTR
h -t 1.238096115 -s 0 -d 1 -p tcp -e 1060 -c 2 -a 0 -i 35 -k RTR
r -t 1.248500438 -s 1 -d 1 -p tcp -e 1060 -c 2 -a 0 -i 21 -k AGT
+ -t 1.248500438 -s 1 -d -1 -p ack -e 40 -c 2 -a 0 -i 36 -k AGT 
- -t 1.248500438 -s 1 -d -1 -p ack -e 40 -c 2 -a 0 -i 36 -k AGT
h -t 1.248500438 -s 1 -d -1 -p ack -e 40 -c 2 -a 0 -i 36 -k AGT
+ -t 1.248500438 -s 1 -d 0 -p ack -e 60 -c 2 -a 0 -i 36 -k RTR 
- -t 1.248500438 -s 1 -d 0 -p ack -e 60 -c 2 -a 0 -i 36 -k RTR
h -t 1.248500438 -s 1 -d 0 -p ack -e 60 -c 2 -a 0 -i 36 -k RTR
r -t 1.250684766 -s 0 -d 0 -p ack -e 60 -c 2 -a 0 -i 36 -k AGT
+ -t 1.250684766 -s 0 -d -1 -p tcp -e 1040 -c 2 -a 0 -i 37 -k AGT 
- -t 1.250684766 -s 0 -d -1 -p tcp -e 1040 -c 2 -a 0 -i 37 -k AGT
h -t 1.250684766 -s 0 -d -1 -p tcp -e 1040 -c 2 -a 0 -i 37 -k AGT
+ -t 1.250684766 -s 0 -d 1 -p tcp -e 1060 -c 2 -a 0 -i 37 -k RTR 
- -t 1.250684766 -s 0 -d 1 -p tcp -e 1060 -c 2 -a 0 -i 37 -k RTR
h -t 1.250684766 -s 0 -d 1 -p tcp -e 1060 -c 2 -a 0 -i 37 -k RTR
+ -t 1.250684766 -s 0 -d -1 -p tcp -e 1040 -c 2 -a 0 -i 38 -k AGT 
- -t 1.250684766 -s 0 -d -1 -p tcp -e 1040 -c 2 -a 0 -i 38 -k AGT
h -t 1.250684766 -s 0 -d -1 -p tcp -e 1040 -c 2 -a 0 -i 38 -k AGT
+ -t 1.250684766 -s 0 -d 1 -p tcp -e 1060 -c 2 -a 0 -i 38 -k RTR 
- -t 1.250684766 -s 0 -d 1 -p tcp -e 1060 -c 2 -a 0 -i 38 -k RTR
h -t 1.250684766 -s 0 -d 1 -p tcp -e 1060 -c 2 -a 0 -i 38 -k RTR
r -t 1.261049096 -s 1 -d 1 -p tcp -e 1060 -c 2 -a 0 -i 22 -k AGT
+ -t 1.261049096 -s 1 -d -1 -p ack -e 40 -c 2 -a 0 -i 39 -k AGT 
- -t 1.261049096 -s 1 -d -1 -p ack -e 40 -c 2 -a 0 -i 39 -k AGT
h -t 1.261049096 -s 1 -d -1 -p ack -e 40 -c 2 -a 0 -i 39 -k AGT
+ -t 1.261049096 -s 1 -d 0 -p ack -e 60 -c 2 -a 0 -i 39 -k RTR 
- -t 1.261049096 -s 1 -d 0 -p ack -e 60 -c 2 -a 0 -i 39 -k RTR
h -t 1.261049096 -s 1 -d 0 -p ack -e 60 -c 2 -a 0 -i 39 -k RTR
r -t 1.263153431 -s 0 -d 0 -p ack -e 60 -c 2 -a 0 -i 39 -k AGT
+ -t 1.263153431 -s 0 -d -1 -p tcp -e 1040 -c 2 -a 0 -i 40 -k AGT 
- -t 1.263153431 -s 0 -d -1 -p tcp -e 1040 -c 2 -a 0 -i 40 -k AGT
h -t 1.263153431 -s 0 -d -1 -p tcp -e 1040 -c 2 -a 0 -i 40 -k AGT
+ -t 1.263153431 -s 0 -d 1 -p tcp -e 1060 -c 2 -a 0 -i 40 -k RTR 
- -t 1.263153431 -s 0 -d 1 -p tcp -e 1060 -c 2 -a 0 -i 40 -k RTR
h -t 1.263153431 -s 0 -d 1 -p tcp -e 1060 -c 2 -a 0 -i 40 -k RTR
+ -t 1.263153431 -s 0 -d -1 -p tcp -e 1040 -c 2 -a 0 -i 41 -k AGT 
- -t 1.263153431 -s 0 -d -1 -p tcp -e 1040 -c 2 -a 0 -i 41 -k AGT
h -t 1.263153431 -s 0 -d -1 -p tcp -e 1040 -c 2 -a 0 -i 41 -k AGT
+ -t 1.263153431 -s 0 -d 1 -p tcp -e 1060 -c 2 -a 0 -i 41 -k RTR 
- -t 1.263153431 -s 0 -d 1 -p tcp -e 1060 -c 2 -a 0 -i 41 -k RTR
h -t 1.263153431 -s 0 -d 1 -p tcp -e 1060 -c 2 -a 0 -i 41 -k RTR
r -t 1.273357767 -s 1 -d 1 -p tcp -e 1060 -c 2 -a 0 -i 23 -k AGT
+ -t 1.273357767 -s 1 -d -1 -p ack -e 40 -c 2 -a 0 -i 42 -k AGT 
- -t 1.273357767 -s 1 -d -1 -p ack -e 40 -c 2 -a 0 -i 42 -k AGT
h -t 1.273357767 -s 1 -d -1 -p ack -e 40 -c 2 -a 0 -i 42 -k AGT
+ -t 1.273357767 -s 1 -d 0 -p ack -e 60 -c 2 -a 0 -i 42 -k RTR 
- -t 1.273357767 -s 1 -d 0 -p ack -e 60 -c 2 -a 0 -i 42 -k RTR
h -t 1.273357767 -s 1 -d 0 -p ack -e 60 -c 2 -a 0 -i 42 -k RTR
r -t 1.284868223 -s 1 -d 1 -p tcp -e 1060 -c 2 -a 0 -i 24 -k AGT
+ -t 1.284868223 -s 1 -d -1 -p ack -e 40 -c 2 -a 0 -i 43 -k AGT 
- -t 1.284868223 -s 1 -d -1 -p ack -e 40 -c 2 -a 0 -i 43 -k AGT
h -t 1.284868223 -s 1 -d -1 -p ack -e 40 -c 2 -a 0 -i 43 -k AGT
+ -t 1.284868223 -s 1 -d 0 -p ack -e 60 -c 2 -a 0 -i 43 -k RTR 
- -t 1.284868223 -s 1 -d 0 -p ack -e 60 -c 2 -a 0 -i 43 -k RTR
h -t 1.284868223 -s 1 -d 0 -p ack -e 60 -c 2 -a 0 -i 43 -k RTR
r -t 1.287312571 -s 0 -d 0 -p ack -e 60 -c 2 -a 0 -i 42 -k AGT
+ -t 1.287312571 -s 0 -d -1 -p tcp -e 1040 -c 2 -a 0 -i 44 -k AGT 
- -t 1.287312571 -s 0 -d -1 -p tcp -e 1040 -c 2 -a 0 -i 44 -k AGT
h -t 1.287312571 -s 0 -d -1 -p tcp -e 1040 -c 2 -a 0 -i 44 -k AGT
+ -t 1.287312571 -s 0 -d 1 -p tcp -e 1060 -c 2 -a 0 -i 44 -k RTR 
- -t 1.287312571 -s 0 -d 1 -p tcp -e 1060 -c 2 -a 0 -i 44 -k RTR
h -t 1.287312571 -s 0 -d 1 -p tcp -e 1060 -c 2 -a 0 -i 44 -k RTR
+ -t 1.287312571 -s 0 -d -1 -p tcp -e 1040 -c 2 -a 0 -i 45 -k AGT 
- -t 1.287312571 -s 0 -d -1 -p tcp -e 1040 -c 2 -a 0 -i 45 -k AGT
h -t 1.287312571 -s 0 -d -1 -p tcp -e 1040 -c 2 -a 0 -i 45 -k AGT
+ -t 1.287312571 -s 0 -d 1 -p tcp -e 1060 -c 2 -a 0 -i 45 -k RTR 
- -t 1.287312571 -s 0 -d 1 -p tcp -e 1060 -c 2 -a 0 -i 45 -k RTR
h -t 1.287312571 -s 0 -d 1 -p tcp -e 1060 -c 2 -a 0 -i 45 -k RTR
r -t 1.289297036 -s 0 -d 0 -p ack -e 60 -c 2 -a 0 -i 43 -k AGT
+ -t 1.289297036 -s 0 -d -1 -p tcp -e 1040 -c 2 -a 0 -i 46 -k AGT 
- -t 1.289297036 -s 0 -d -1 -p tcp -e 1040 -c 2 -a 0 -i 46 -k AGT
h -t 1.289297036 -s 0 -d -1 -p tcp -e 1040 -c 2 -a 0 -i 46 -k AGT
+ -t 1.289297036 -s 0 -d 1 -p tcp -e 1060 -c 2 -a 0 -i 46 -k RTR 
- -t 1.289297036 -s 0 -d 1 -p tcp -e 1060 -c 2 -a 0 -i 46 -k RTR
h -t 1.289297036 -s 0 -d 1 -p tcp -e 1060 -c 2 -a 0 -i 46 -k RTR
+ -t 1.289297036 -s 0 -d -1 -p tcp -e 1040 -c 2 -a 0 -i 47 -k AGT 
- -t 1.289297036 -s 0 -d -1 -p tcp -e 1040 -c 2 -a 0 -i 47 -k AGT
h -t 1.289297036 -s 0 -d -1 -p tcp -e 1040 -c 2 -a 0 -i 47 -k AGT
+ -t 1.289297036 -s 0 -d 1 -p tcp -e 1060 -c 2 -a 0 -i 47 -k RTR 
- -t 1.289297036 -s 0 -d 1 -p tcp -e 1060 -c 2 -a 0 -i 47 -k RTR
h -t 1.289297036 -s 0 -d 1 -p tcp -e 1060 -c 2 -a 0 -i 47 -k RTR
r -t 1.299301386 -s 1 -d 1 -p tcp -e 1060 -c 2 -a 0 -i 25 -k AGT
+ -t 1.299301386 -s 1 -d -1 -p ack -e 40 -c 2 -a 0 -i 48 -k AGT 
- -t 1.299301386 -s 1 -d -1 -p ack -e 40 -c 2 -a 0 -i 48 -k AGT
h -t 1.299301386 -s 1 -d -1 -p ack -e 40 -c 2 -a 0 -i 48 -k AGT
+ -t 1.299301386 -s 1 -d 0 -p ack -e 60 -c 2 -a 0 -i 48 -k RTR 
- -t 1.299301386 -s 1 -d 0 -p ack -e 60 -c 2 -a 0 -i 48 -k RTR
h -t 1.299301386 -s 1 -d 0 -p ack -e 60 -c 2 -a 0 -i 48 -k RTR
r -t 1.301485741 -s 0 -d 0 -p ack -e 60 -c 2 -a 0 -i 48 -k AGT
+ -t 1.301485741 -s 0 -d -1 -p tcp -e 1040 -c 2 -a 0 -i 49 -k AGT 
- -t 1.301485741 -s 0 -d -1 -p tcp -e 1040 -c 2 -a 0 -i 49 -k AGT
h -t 1.301485741 -s 0 -d -1 -p tcp -e 1040 -c 2 -a 0 -i 49 -k AGT
+ -t 1.301485741 -s 0 -d 1 -p tcp -e 1060 -c 2 -a 0 -i 49 -k RTR 
- -t 1.301485741 -s 0 -d 1 -p tcp -e 1060 -c 2 -a 0 -i 49 -k RTR
h -t 1.301485741 -s 0 -d 1 -p tcp -e 1060 -c 2 -a 0 -i 49 -k RTR
+ -t 1.301485741 -s 0 -d -1 -p tcp -e 1040 -c 2 -a 0 -i 50 -k AGT 
- -t 1.301485741 -s 0 -d -1 -p tcp -e 1040 -c 2 -a 0 -i 50 -k AGT
h -t 1.301485741 -s 0 -d -1 -p tcp -e 1040 -c 2 -a 0 -i 50 -k AGT
+ -t 1.301485741 -s 0 -d 1 -p tcp -e 1060 -c 2 -a 0 -i 50 -k RTR 
- -t 1.301485741 -s 0 -d 1 -p tcp -e 1060 -c 2 -a 0 -i 50 -k RTR
h -t 1.301485741 -s 0 -d 1 -p tcp -e 1060 -c 2 -a 0 -i 50 -k RTR
r -t 1.311590098 -s 1 -d 1 -p tcp -e 1060 -c 2 -a 0 -i 26 -k AGT
+ -t 1.311590098 -s 1 -d -1 -p ack -e 40 -c 2 -a 0 -i 51 -k AGT 
- -t 1.311590098 -s 1 -d -1 -p ack -e 40 -c 2 -a 0 -i 51 -k AGT
h -t 1.311590098 -s 1 -d -1 -p ack -e 40 -c 2 -a 0 -i 51 -k AGT
+ -t 1.311590098 -s 1 -d 0 -p ack -e 60 -c 2 -a 0 -i 51 -k RTR 
- -t 1.311590098 -s 1 -d 0 -p ack -e 60 -c 2 -a 0 -i 51 -k RTR
h -t 1.311590098 -s 1 -d 0 -p ack -e 60 -c 2 -a 0 -i 51 -k RTR
r -t 1.313614459 -s 0 -d 0 -p ack -e 60 -c 2 -a 0 -i 51 -k AGT
+ -t 1.313614459 -s 0 -d -1 -p tcp -e 1040 -c 2 -a 0 -i 52 -k AGT 
- -t 1.313614459 -s 0 -d -1 -p tcp -e 1040 -c 2 -a 0 -i 52 -k AGT
h -t 1.313614459 -s 0 -d -1 -p tcp -e 1040 -c 2 -a 0 -i 52 -k AGT
+ -t 1.313614459 -s 0 -d 1 -p tcp -e 1060 -c 2 -a 0 -i 52 -k RTR 
- -t 1.313614459 -s 0 -d 1 -p tcp -e 1060 -c 2 -a 0 -i 52 -k RTR
h -t 1.313614459 -s 0 -d 1 -p tcp -e 1060 -c 2 -a 0 -i 52 -k RTR
+ -t 1.313614459 -s 0 -d -1 -p tcp -e 1040 -c 2 -a 0 -i 53 -k AGT 
- -t 1.313614459 -s 0 -d -1 -p tcp -e 1040 -c 2 -a 0 -i 53 -k AGT
h -t 1.313614459 -s 0 -d -1 -p tcp -e 1040 -c 2 -a 0 -i 53 -k AGT
+ -t 1.313614459 -s 0 -d 1 -p tcp -e 1060 -c 2 -a 0 -i 53 -k RTR 
- -t 1.313614459 -s 0 -d 1 -p tcp -e 1060 -c 2 -a 0 -i 53 -k RTR
h -t 1.313614459 -s 0 -d 1 -p tcp -e 1060 -c 2 -a 0 -i 53 -k RTR
r -t 1.323778822 -s 1 -d 1 -p tcp -e 1060 -c 2 -a 0 -i 28 -k AGT
+ -t 1.323778822 -s 1 -d -1 -p ack -e 40 -c 2 -a 0 -i 54 -k AGT 
- -t 1.323778822 -s 1 -d -1 -p ack -e 40 -c 2 -a 0 -i 54 -k AGT
h -t 1.323778822 -s 1 -d -1 -p ack -e 40 -c 2 -a 0 -i 54 -k AGT
+ -t 1.323778822 -s 1 -d 0 -p ack -e 60 -c 2 -a 0 -i 54 -k RTR 
- -t 1.323778822 -s 1 -d 0 -p ack -e 60 -c 2 -a 0 -i 54 -k RTR
h -t 1.323778822 -s 1 -d 0 -p ack -e 60 -c 2 -a 0 -i 54 -k RTR
r -t 1.333763313 -s 1 -d 1 -p tcp -e 1060 -c 2 -a 0 -i 29 -k AGT
+ -t 1.333763313 -s 1 -d -1 -p ack -e 40 -c 2 -a 0 -i 55 -k AGT 
- -t 1.333763313 -s 1 -d -1 -p ack -e 40 -c 2 -a 0 -i 55 -k AGT
h -t 1.333763313 -s 1 -d -1 -p ack -e 40 -c 2 -a 0 -i 55 -k AGT
+ -t 1.333763313 -s 1 -d 0 -p ack -e 60 -c 2 -a 0 -i 55 -k RTR 
- -t 1.333763313 -s 1 -d 0 -p ack -e 60 -c 2 -a 0 -i 55 -k RTR
h -t 1.333763313 -s 1 -d 0 -p ack -e 60 -c 2 -a 0 -i 55 -k RTR
r -t 1.343987811 -s 1 -d 1 -p tcp -e 1060 -c 2 -a 0 -i 31 -k AGT
+ -t 1.343987811 -s 1 -d -1 -p ack -e 40 -c 2 -a 0 -i 56 -k AGT 
- -t 1.343987811 -s 1 -d -1 -p ack -e 40 -c 2 -a 0 -i 56 -k AGT
h -t 1.343987811 -s 1 -d -1 -p ack -e 40 -c 2 -a 0 -i 56 -k AGT
+ -t 1.343987811 -s 1 -d 0 -p ack -e 60 -c 2 -a 0 -i 56 -k RTR 
- -t 1.343987811 -s 1 -d 0 -p ack -e 60 -c 2 -a 0 -i 56 -k RTR
h -t 1.343987811 -s 1 -d 0 -p ack -e 60 -c 2 -a 0 -i 56 -k RTR
r -t 1.346032189 -s 0 -d 0 -p ack -e 60 -c 2 -a 0 -i 54 -k AGT
+ -t 1.346032189 -s 0 -d -1 -p tcp -e 1040 -c 2 -a 0 -i 57 -k AGT 
- -t 1.346032189 -s 0 -d -1 -p tcp -e 1040 -c 2 -a 0 -i 57 -k AGT
h -t 1.346032189 -s 0 -d -1 -p tcp -e 1040 -c 2 -a 0 -i 57 -k AGT
+ -t 1.346032189 -s 0 -d 1 -p tcp -e 1060 -c 2 -a 0 -i 57 -k RTR 
- -t 1.346032189 -s 0 -d 1 -p tcp -e 1060 -c 2 -a 0 -i 57 -k RTR
h -t 1.346032189 -s 0 -d 1 -p tcp -e 1060 -c 2 -a 0 -i 57 -k RTR
+ -t 1.346032189 -s 0 -d -1 -p tcp -e 1040 -c 2 -a 0 -i 58 -k AGT 
- -t 1.346032189 -s 0 -d -1 -p tcp -e 1040 -c 2 -a 0 -i 58 -k AGT
h -t 1.346032189 -s 0 -d -1 -p tcp -e 1040 -c 2 -a 0 -i 58 -k AGT
+ -t 1.346032189 -s 0 -d 1 -p tcp -e 1060 -c 2 -a 0 -i 58 -k RTR 
- -t 1.346032189 -s 0 -d 1 -p tcp -e 1060 -c 2 -a 0 -i 58 -k RTR
h -t 1.346032189 -s 0 -d 1 -p tcp -e 1060 -c 2 -a 0 -i 58 -k RTR
r -t 1.356256569 -s 1 -d 1 -p tcp -e 1060 -c 2 -a 0 -i 32 -k AGT
+ -t 1.356256569 -s 1 -d -1 -p ack -e 40 -c 2 -a 0 -i 59 -k AGT 
- -t 1.356256569 -s 1 -d -1 -p ack -e 40 -c 2 -a 0 -i 59 -k AGT
h -t 1.356256569 -s 1 -d -1 -p ack -e 40 -c 2 -a 0 -i 59 -k AGT
+ -t 1.356256569 -s 1 -d 0 -p ack -e 60 -c 2 -a 0 -i 59 -k RTR 
- -t 1.356256569 -s 1 -d 0 -p ack -e 60 -c 2 -a 0 -i 59 -k RTR
h -t 1.356256569 -s 1 -d 0 -p ack -e 60 -c 2 -a 0 -i 59 -k RTR
r -t 1.366261083 -s 1 -d 1 -p tcp -e 1060 -c 2 -a 0 -i 34 -k AGT
+ -t 1.366261083 -s 1 -d -1 -p ack -e 40 -c 2 -a 0 -i 60 -k AGT 
- -t 1.366261083 -s 1 -d -1 -p ack -e 40 -c 2 -a 0 -i 60 -k AGT
h -t 1.366261083 -s 1 -d -1 -p ack -e 40 -c 2 -a 0 -i 60 -k AGT
+ -t 1.366261083 -s 1 -d 0 -p ack -e 60 -c 2 -a 0 -i 60 -k RTR 
- -t 1.366261083 -s 1 -d 0 -p ack -e 60 -c 2 -a 0 -i 60 -k RTR
h -t 1.366261083 -s 1 -d 0 -p ack -e 60 -c 2 -a 0 -i 60 -k RTR
r -t 1.368265474 -s 0 -d 0 -p ack -e 60 -c 2 -a 0 -i 55 -k AGT
+ -t 1.368265474 -s 0 -d -1 -p tcp -e 1040 -c 2 -a 0 -i 61 -k AGT 
- -t 1.368265474 -s 0 -d -1 -p tcp -e 1040 -c 2 -a 0 -i 61 -k AGT
h -t 1.368265474 -s 0 -d -1 -p tcp -e 1040 -c 2 -a 0 -i 61 -k AGT
+ -t 1.368265474 -s 0 -d 1 -p tcp -e 1060 -c 2 -a 0 -i 61 -k RTR 
- -t 1.368265474 -s 0 -d 1 -p tcp -e 1060 -c 2 -a 0 -i 61 -k RTR
h -t 1.368265474 -s 0 -d 1 -p tcp -e 1060 -c 2 -a 0 -i 61 -k RTR
+ -t 1.368265474 -s 0 -d -1 -p tcp -e 1040 -c 2 -a 0 -i 62 -k AGT 
- -t 1.368265474 -s 0 -d -1 -p tcp -e 1040 -c 2 -a 0 -i 62 -k AGT
h -t 1.368265474 -s 0 -d -1 -p tcp -e 1040 -c 2 -a 0 -i 62 -k AGT
+ -t 1.368265474 -s 0 -d 1 -p tcp -e 1060 -c 2 -a 0 -i 62 -k RTR 
- -t 1.368265474 -s 0 -d 1 -p tcp -e 1060 -c 2 -a 0 -i 62 -k RTR
h -t 1.368265474 -s 0 -d 1 -p tcp -e 1060 -c 2 -a 0 -i 62 -k RTR
r -t 1.370489996 -s 0 -d 0 -p ack -e 60 -c 2 -a 0 -i 56 -k AGT
+ -t 1.370489996 -s 0 -d -1 -p tcp -e 1040 -c 2 -a 0 -i 63 -k AGT 
- -t 1.370489996 -s 0 -d -1 -p tcp -e 1040 -c 2 -a 0 -i 63 -k AGT
h -t 1.370489996 -s 0 -d -1 -p tcp -e 1040 -c 2 -a 0 -i 63 -k AGT
+ -t 1.370489996 -s 0 -d 1 -p tcp -e 1060 -c 2 -a 0 -i 63 -k RTR 
- -t 1.370489996 -s 0 -d 1 -p tcp -e 1060 -c 2 -a 0 -i 63 -k RTR
h -t 1.370489996 -s 0 -d 1 -p tcp -e 1060 -c 2 -a 0 -i 63 -k RTR
r -t 1.372594520 -s 0 -d 0 -p ack -e 60 -c 2 -a 0 -i 59 -k AGT
+ -t 1.372594520 -s 0 -d -1 -p tcp -e 1040 -c 2 -a 0 -i 64 -k AGT 
- -t 1.372594520 -s 0 -d -1 -p tcp -e 1040 -c 2 -a 0 -i 64 -k AGT
h -t 1.372594520 -s 0 -d -1 -p tcp -e 1040 -c 2 -a 0 -i 64 -k AGT
+ -t 1.372594520 -s 0 -d 1 -p tcp -e 1060 -c 2 -a 0 -i 64 -k RTR 
- -t 1.372594520 -s 0 -d 1 -p tcp -e 1060 -c 2 -a 0 -i 64 -k RTR
h -t 1.372594520 -s 0 -d 1 -p tcp -e 1060 -c 2 -a 0 -i 64 -k RTR
r -t 1.382678914 -s 1 -d 1 -p tcp -e 1060 -c 2 -a 0 -i 35 -k AGT
+ -t 1.382678914 -s 1 -d -1 -p ack -e 40 -c 2 -a 0 -i 65 -k AGT 
- -t 1.382678914 -s 1 -d -1 -p ack -e 40 -c 2 -a 0 -i 65 -k AGT
h -t 1.382678914 -s 1 -d -1 -p ack -e 40 -c 2 -a 0 -i 65 -k AGT
+ -t 1.382678914 -s 1 -d 0 -p ack -e 60 -c 2 -a 0 -i 65 -k RTR 
- -t 1.382678914 -s 1 -d 0 -p ack -e 60 -c 2 -a 0 -i 65 -k RTR
h -t 1.382678914 -s 1 -d 0 -p ack -e 60 -c 2 -a 0 -i 65 -k RTR
r -t 1.392703446 -s 1 -d 1 -p tcp -e 1060 -c 2 -a 0 -i 37 -k AGT
+ -t 1.392703446 -s 1 -d -1 -p ack -e 40 -c 2 -a 0 -i 66 -k AGT 
- -t 1.392703446 -s 1 -d -1 -p ack -e 40 -c 2 -a 0 -i 66 -k AGT
h -t 1.392703446 -s 1 -d -1 -p ack -e 40 -c 2 -a 0 -i 66 -k AGT
+ -t 1.392703446 -s 1 -d 0 -p ack -e 60 -c 2 -a 0 -i 66 -k RTR 
- -t 1.392703446 -s 1 -d 0 -p ack -e 60 -c 2 -a 0 -i 66 -k RTR
h -t 1.392703446 -s 1 -d 0 -p ack -e 60 -c 2 -a 0 -i 66 -k RTR
r -t 1.394847851 -s 0 -d 0 -p ack -e 60 -c 2 -a 0 -i 60 -k AGT
+ -t 1.394847851 -s 0 -d -1 -p tcp -e 1040 -c 2 -a 0 -i 67 -k AGT 
- -t 1.394847851 -s 0 -d -1 -p tcp -e 1040 -c 2 -a 0 -i 67 -k AGT
h -t 1.394847851 -s 0 -d -1 -p tcp -e 1040 -c 2 -a 0 -i 67 -k AGT
+ -t 1.394847851 -s 0 -d 1 -p tcp -e 1060 -c 2 -a 0 -i 67 -k RTR 
- -t 1.394847851 -s 0 -d 1 -p tcp -e 1060 -c 2 -a 0 -i 67 -k RTR
h -t 1.394847851 -s 0 -d 1 -p tcp -e 1060 -c 2 -a 0 -i 67 -k RTR
r -t 1.396952391 -s 0 -d 0 -p ack -e 60 -c 2 -a 0 -i 65 -k AGT
+ -t 1.396952391 -s 0 -d -1 -p tcp -e 1040 -c 2 -a 0 -i 68 -k AGT 
- -t 1.396952391 -s 0 -d -1 -p tcp -e 1040 -c 2 -a 0 -i 68 -k AGT
h -t 1.396952391 -s 0 -d -1 -p tcp -e 1040 -c 2 -a 0 -i 68 -k AGT
+ -t 1.396952391 -s 0 -d 1 -p tcp -e 1060 -c 2 -a 0 -i 68 -k RTR 
- -t 1.396952391 -s 0 -d 1 -p tcp -e 1060 -c 2 -a 0 -i 68 -k RTR