V -t * -v 1.0a5 -a 0
A -t * -n 1 -p 0 -o 0x7fffffff -c 30 -a 1
A -t * -h 1 -m 1073741823 -s 0
n -t * -a 4 -s 4 -S UP -v circle -c black -i black
n -t * -a 0 -s 0 -S UP -v circle -c black -i black
n -t * -a 5 -s 5 -S UP -v circle -c black -i black
n -t * -a 1 -s 1 -S UP -v circle -c black -i black
n -t * -a 2 -s 2 -S UP -v circle -c black -i black
n -t * -a 3 -s 3 -S UP -v circle -c black -i black
l -t * -s 0 -d 2 -S UP -r 1500000 -D 0.0050000000000000001 -c black -o up-right
l -t * -s 1 -d 2 -S UP -r 1500000 -D 0.0050000000000000001 -c black -o down-right
l -t * -s 2 -d 3 -S UP -r 1500000 -D 0.0050000000000000001 -c black -o right
l -t * -s 3 -d 4 -S UP -r 1500000 -D 0.0050000000000000001 -c black -o up-right
l -t * -s 3 -d 5 -S UP -r 1500000 -D 0.0050000000000000001 -c black -o down-right
+ -t 0.1 -s 0 -d 2 -p tcp -e 40 -c 0 -i 0 -a 0 -x {0.0 5.0 0 ------- null}
- -t 0.1 -s 0 -d 2 -p tcp -e 40 -c 0 -i 0 -a 0 -x {0.0 5.0 0 ------- null}
h -t 0.1 -s 0 -d 2 -p tcp -e 40 -c 0 -i 0 -a 0 -x {0.0 5.0 -1 ------- null}
r -t 0.105213333333333 -s 0 -d 2 -p tcp -e 40 -c 0 -i 0 -a 0 -x {0.0 5.0 0 ------- null}
+ -t 0.105213333333333 -s 2 -d 3 -p tcp -e 40 -c 0 -i 0 -a 0 -x {0.0 5.0 0 ------- null}
- -t 0.105213333333333 -s 2 -d 3 -p tcp -e 40 -c 0 -i 0 -a 0 -x {0.0 5.0 0 ------- null}
h -t 0.105213333333333 -s 2 -d 3 -p tcp -e 40 -c 0 -i 0 -a 0 -x {0.0 5.0 -1 ------- null}
r -t 0.110426666666667 -s 2 -d 3 -p tcp -e 40 -c 0 -i 0 -a 0 -x {0.0 5.0 0 ------- null}
+ -t 0.110426666666667 -s 3 -d 5 -p tcp -e 40 -c 0 -i 0 -a 0 -x {0.0 5.0 0 ------- null}
- -t 0.110426666666667 -s 3 -d 5 -p tcp -e 40 -c 0 -i 0 -a 0 -x {0.0 5.0 0 ------- null}
h -t 0.110426666666667 -s 3 -d 5 -p tcp -e 40 -c 0 -i 0 -a 0 -x {0.0 5.0 -1 ------- null}
r -t 0.11564 -s 3 -d 5 -p tcp -e 40 -c 0 -i 0 -a 0 -x {0.0 5.0 0 ------- null}
+ -t 0.11564 -s 5 -d 3 -p ack -e 40 -c 0 -i 1 -a 0 -x {5.0 0.0 0 ------- null}
- -t 0.11564 -s 5 -d 3 -p ack -e 40 -c 0 -i 1 -a 0 -x {5.0 0.0 0 ------- null}
h -t 0.11564 -s 5 -d 3 -p ack -e 40 -c 0 -i 1 -a 0 -x {5.0 0.0 -1 ------- null}
r -t 0.120853333333333 -s 5 -d 3 -p ack -e 40 -c 0 -i 1 -a 0 -x {5.0 0.0 0 ------- null}
+ -t 0.120853333333333 -s 3 -d 2 -p ack -e 40 -c 0 -i 1 -a 0 -x {5.0 0.0 0 ------- null}
- -t 0.120853333333333 -s 3 -d 2 -p ack -e 40 -c 0 -i 1 -a 0 -x {5.0 0.0 0 ------- null}
h -t 0.120853333333333 -s 3 -d 2 -p ack -e 40 -c 0 -i 1 -a 0 -x {5.0 0.0 -1 ------- null}
r -t 0.126066666666667 -s 3 -d 2 -p ack -e 40 -c 0 -i 1 -a 0 -x {5.0 0.0 0 ------- null}
+ -t 0.126066666666667 -s 2 -d 0 -p ack -e 40 -c 0 -i 1 -a 0 -x {5.0 0.0 0 ------- null}
- -t 0.126066666666667 -s 2 -d 0 -p ack -e 40 -c 0 -i 1 -a 0 -x {5.0 0.0 0 ------- null}
h -t 0.126066666666667 -s 2 -d 0 -p ack -e 40 -c 0 -i 1 -a 0 -x {5.0 0.0 -1 ------- null}
r -t 0.13128 -s 2 -d 0 -p ack -e 40 -c 0 -i 1 -a 0 -x {5.0 0.0 0 ------- null}
+ -t 0.13128 -s 0 -d 2 -p tcp -e 1040 -c 0 -i 2 -a 0 -x {0.0 5.0 1 ------- null}
- -t 0.13128 -s 0 -d 2 -p tcp -e 1040 -c 0 -i 2 -a 0 -x {0.0 5.0 1 ------- null}
h -t 0.13128 -s 0 -d 2 -p tcp -e 1040 -c 0 -i 2 -a 0 -x {0.0 5.0 -1 ------- null}
+ -t 0.13128 -s 0 -d 2 -p tcp -e 1040 -c 0 -i 3 -a 0 -x {0.0 5.0 2 ------- null}
- -t 0.136826666666667 -s 0 -d 2 -p tcp -e 1040 -c 0 -i 3 -a 0 -x {0.0 5.0 2 ------- null}
h -t 0.136826666666667 -s 0 -d 2 -p tcp -e 1040 -c 0 -i 3 -a 0 -x {0.0 5.0 -1 ------- null}
r -t 0.141826666666667 -s 0 -d 2 -p tcp -e 1040 -c 0 -i 2 -a 0 -x {0.0 5.0 1 ------- null}
+ -t 0.141826666666667 -s 2 -d 3 -p tcp -e 1040 -c 0 -i 2 -a 0 -x {0.0 5.0 1 ------- null}
- -t 0.141826666666667 -s 2 -d 3 -p tcp -e 1040 -c 0 -i 2 -a 0 -x {0.0 5.0 1 ------- null}
h -t 0.141826666666667 -s 2 -d 3 -p tcp -e 1040 -c 0 -i 2 -a 0 -x {0.0 5.0 -1 ------- null}
r -t 0.147373333333333 -s 0 -d 2 -p tcp -e 1040 -c 0 -i 3 -a 0 -x {0.0 5.0 2 ------- null}
+ -t 0.147373333333333 -s 2 -d 3 -p tcp -e 1040 -c 0 -i 3 -a 0 -x {0.0 5.0 2 ------- null}
- -t 0.147373333333333 -s 2 -d 3 -p tcp -e 1040 -c 0 -i 3 -a 0 -x {0.0 5.0 2 ------- null}
h -t 0.147373333333333 -s 2 -d 3 -p tcp -e 1040 -c 0 -i 3 -a 0 -x {0.0 5.0 -1 ------- null}
r -t 0.152373333333333 -s 2 -d 3 -p tcp -e 1040 -c 0 -i 2 -a 0 -x {0.0 5.0 1 ------- null}
+ -t 0.152373333333333 -s 3 -d 5 -p tcp -e 1040 -c 0 -i 2 -a 0 -x {0.0 5.0 1 ------- null}
- -t 0.152373333333333 -s 3 -d 5 -p tcp -e 1040 -c 0 -i 2 -a 0 -x {0.0 5.0 1 ------- null}
h -t 0.152373333333333 -s 3 -d 5 -p tcp -e 1040 -c 0 -i 2 -a 0 -x {0.0 5.0 -1 ------- null}
r -t 0.15792 -s 2 -d 3 -p tcp -e 1040 -c 0 -i 3 -a 0 -x {0.0 5.0 2 ------- null}
+ -t 0.15792 -s 3 -d 5 -p tcp -e 1040 -c 0 -i 3 -a 0 -x {0.0 5.0 2 ------- null}
- -t 0.15792 -s 3 -d 5 -p tcp -e 1040 -c 0 -i 3 -a 0 -x {0.0 5.0 2 ------- null}
h -t 0.15792 -s 3 -d 5 -p tcp -e 1040 -c 0 -i 3 -a 0 -x {0.0 5.0 -1 ------- null}
r -t 0.16292 -s 3 -d 5 -p tcp -e 1040 -c 0 -i 2 -a 0 -x {0.0 5.0 1 ------- null}
+ -t 0.16292 -s 5 -d 3 -p ack -e 40 -c 0 -i 4 -a 0 -x {5.0 0.0 1 ------- null}
- -t 0.16292 -s 5 -d 3 -p ack -e 40 -c 0 -i 4 -a 0 -x {5.0 0.0 1 ------- null}
h -t 0.16292 -s 5 -d 3 -p ack -e 40 -c 0 -i 4 -a 0 -x {5.0 0.0 -1 ------- null}
r -t 0.168133333333333 -s 5 -d 3 -p ack -e 40 -c 0 -i 4 -a 0 -x {5.0 0.0 1 ------- null}
+ -t 0.168133333333333 -s 3 -d 2 -p ack -e 40 -c 0 -i 4 -a 0 -x {5.0 0.0 1 ------- null}
- -t 0.168133333333333 -s 3 -d 2 -p ack -e 40 -c 0 -i 4 -a 0 -x {5.0 0.0 1 ------- null}
h -t 0.168133333333333 -s 3 -d 2 -p ack -e 40 -c 0 -i 4 -a 0 -x {5.0 0.0 -1 ------- null}
r -t 0.168466666666667 -s 3 -d 5 -p tcp -e 1040 -c 0 -i 3 -a 0 -x {0.0 5.0 2 ------- null}
+ -t 0.168466666666667 -s 5 -d 3 -p ack -e 40 -c 0 -i 5 -a 0 -x {5.0 0.0 2 ------- null}
- -t 0.168466666666667 -s 5 -d 3 -p ack -e 40 -c 0 -i 5 -a 0 -x {5.0 0.0 2 ------- null}
h -t 0.168466666666667 -s 5 -d 3 -p ack -e 40 -c 0 -i 5 -a 0 -x {5.0 0.0 -1 ------- null}
r -t 0.173346666666667 -s 3 -d 2 -p ack -e 40 -c 0 -i 4 -a 0 -x {5.0 0.0 1 ------- null}
+ -t 0.173346666666667 -s 2 -d 0 -p ack -e 40 -c 0 -i 4 -a 0 -x {5.0 0.0 1 ------- null}
- -t 0.173346666666667 -s 2 -d 0 -p ack -e 40 -c 0 -i 4 -a 0 -x {5.0 0.0 1 ------- null}
h -t 0.173346666666667 -s 2 -d 0 -p ack -e 40 -c 0 -i 4 -a 0 -x {5.0 0.0 -1 ------- null}
r -t 0.17368 -s 5 -d 3 -p ack -e 40 -c 0 -i 5 -a 0 -x {5.0 0.0 2 ------- null}
+ -t 0.17368 -s 3 -d 2 -p ack -e 40 -c 0 -i 5 -a 0 -x {5.0 0.0 2 ------- null}
- -t 0.17368 -s 3 -d 2 -p ack -e 40 -c 0 -i 5 -a 0 -x {5.0 0.0 2 ------- null}
h -t 0.17368 -s 3 -d 2 -p ack -e 40 -c 0 -i 5 -a 0 -x {5.0 0.0 -1 ------- null}
r -t 0.17856 -s 2 -d 0 -p ack -e 40 -c 0 -i 4 -a 0 -x {5.0 0.0 1 ------- null}
+ -t 0.17856 -s 0 -d 2 -p tcp -e 1040 -c 0 -i 6 -a 0 -x {0.0 5.0 3 ------- null}
- -t 0.17856 -s 0 -d 2 -p tcp -e 1040 -c 0 -i 6 -a 0 -x {0.0 5.0 3 ------- null}
h -t 0.17856 -s 0 -d 2 -p tcp -e 1040 -c 0 -i 6 -a 0 -x {0.0 5.0 -1 ------- null}
+ -t 0.17856 -s 0 -d 2 -p tcp -e 1040 -c 0 -i 7 -a 0 -x {0.0 5.0 4 ------- null}
r -t 0.178893333333333 -s 3 -d 2 -p ack -e 40 -c 0 -i 5 -a 0 -x {5.0 0.0 2 ------- null}
+ -t 0.178893333333333 -s 2 -d 0 -p ack -e 40 -c 0 -i 5 -a 0 -x {5.0 0.0 2 ------- null}
- -t 0.178893333333333 -s 2 -d 0 -p ack -e 40 -c 0 -i 5 -a 0 -x {5.0 0.0 2 ------- null}
h -t 0.178893333333333 -s 2 -d 0 -p ack -e 40 -c 0 -i 5 -a 0 -x {5.0 0.0 -1 ------- null}
- -t 0.184106666666667 -s 0 -d 2 -p tcp -e 1040 -c 0 -i 7 -a 0 -x {0.0 5.0 4 ------- null}
h -t 0.184106666666667 -s 0 -d 2 -p tcp -e 1040 -c 0 -i 7 -a 0 -x {0.0 5.0 -1 ------- null}
r -t 0.184106666666667 -s 2 -d 0 -p ack -e 40 -c 0 -i 5 -a 0 -x {5.0 0.0 2 ------- null}
+ -t 0.184106666666667 -s 0 -d 2 -p tcp -e 1040 -c 0 -i 8 -a 0 -x {0.0 5.0 5 ------- null}
+ -t 0.184106666666667 -s 0 -d 2 -p tcp -e 1040 -c 0 -i 9 -a 0 -x {0.0 5.0 6 ------- null}
r -t 0.189106666666667 -s 0 -d 2 -p tcp -e 1040 -c 0 -i 6 -a 0 -x {0.0 5.0 3 ------- null}
+ -t 0.189106666666667 -s 2 -d 3 -p tcp -e 1040 -c 0 -i 6 -a 0 -x {0.0 5.0 3 ------- null}
- -t 0.189106666666667 -s 2 -d 3 -p tcp -e 1040 -c 0 -i 6 -a 0 -x {0.0 5.0 3 ------- null}
h -t 0.189106666666667 -s 2 -d 3 -p tcp -e 1040 -c 0 -i 6 -a 0 -x {0.0 5.0 -1 ------- null}
- -t 0.189653333333333 -s 0 -d 2 -p tcp -e 1040 -c 0 -i 8 -a 0 -x {0.0 5.0 5 ------- null}
h -t 0.189653333333333 -s 0 -d 2 -p tcp -e 1040 -c 0 -i 8 -a 0 -x {0.0 5.0 -1 ------- null}
r -t 0.194653333333333 -s 0 -d 2 -p tcp -e 1040 -c 0 -i 7 -a 0 -x {0.0 5.0 4 ------- null}
+ -t 0.194653333333333 -s 2 -d 3 -p tcp -e 1040 -c 0 -i 7 -a 0 -x {0.0 5.0 4 ------- null}
- -t 0.194653333333333 -s 2 -d 3 -p tcp -e 1040 -c 0 -i 7 -a 0 -x {0.0 5.0 4 ------- null}
h -t 0.194653333333333 -s 2 -d 3 -p tcp -e 1040 -c 0 -i 7 -a 0 -x {0.0 5.0 -1 ------- null}
- -t 0.1952 -s 0 -d 2 -p tcp -e 1040 -c 0 -i 9 -a 0 -x {0.0 5.0 6 ------- null}
h -t 0.1952 -s 0 -d 2 -p tcp -e 1040 -c 0 -i 9 -a 0 -x {0.0 5.0 -1 ------- null}
r -t 0.199653333333333 -s 2 -d 3 -p tcp -e 1040 -c 0 -i 6 -a 0 -x {0.0 5.0 3 ------- null}
+ -t 0.199653333333333 -s 3 -d 5 -p tcp -e 1040 -c 0 -i 6 -a 0 -x {0.0 5.0 3 ------- null}
- -t 0.199653333333333 -s 3 -d 5 -p tcp -e 1040 -c 0 -i 6 -a 0 -x {0.0 5.0 3 ------- null}
h -t 0.199653333333333 -s 3 -d 5 -p tcp -e 1040 -c 0 -i 6 -a 0 -x {0.0 5.0 -1 ------- null}
r -t 0.2002 -s 0 -d 2 -p tcp -e 1040 -c 0 -i 8 -a 0 -x {0.0 5.0 5 ------- null}
+ -t 0.2002 -s 2 -d 3 -p tcp -e 1040 -c 0 -i 8 -a 0 -x {0.0 5.0 5 ------- null}
- -t 0.2002 -s 2 -d 3 -p tcp -e 1040 -c 0 -i 8 -a 0 -x {0.0 5.0 5 ------- null}
h -t 0.2002 -s 2 -d 3 -p tcp -e 1040 -c 0 -i 8 -a 0 -x {0.0 5.0 -1 ------- null}
r -t 0.2052 -s 2 -d 3 -p tcp -e 1040 -c 0 -i 7 -a 0 -x {0.0 5.0 4 ------- null}
+ -t 0.2052 -s 3 -d 5 -p tcp -e 1040 -c 0 -i 7 -a 0 -x {0.0 5.0 4 ------- null}
- -t 0.2052 -s 3 -d 5 -p tcp -e 1040 -c 0 -i 7 -a 0 -x {0.0 5.0 4 ------- null}
h -t 0.2052 -s 3 -d 5 -p tcp -e 1040 -c 0 -i 7 -a 0 -x {0.0 5.0 -1 ------- null}
r -t 0.205746666666667 -s 0 -d 2 -p tcp -e 1040 -c 0 -i 9 -a 0 -x {0.0 5.0 6 ------- null}
+ -t 0.205746666666667 -s 2 -d 3 -p tcp -e 1040 -c 0 -i 9 -a 0 -x {0.0 5.0 6 ------- null}
- -t 0.205746666666667 -s 2 -d 3 -p tcp -e 1040 -c 0 -i 9 -a 0 -x {0.0 5.0 6 ------- null}
h -t 0.205746666666667 -s 2 -d 3 -p tcp -e 1040 -c 0 -i 9 -a 0 -x {0.0 5.0 -1 ------- null}
r -t 0.2102 -s 3 -d 5 -p tcp -e 1040 -c 0 -i 6 -a 0 -x {0.0 5.0 3 ------- null}
+ -t 0.2102 -s 5 -d 3 -p ack -e 40 -c 0 -i 10 -a 0 -x {5.0 0.0 3 ------- null}
- -t 0.2102 -s 5 -d 3 -p ack -e 40 -c 0 -i 10 -a 0 -x {5.0 0.0 3 ------- null}
h -t 0.2102 -s 5 -d 3 -p ack -e 40 -c 0 -i 10 -a 0 -x {5.0 0.0 -1 ------- null}
r -t 0.210746666666667 -s 2 -d 3 -p tcp -e 1040 -c 0 -i 8 -a 0 -x {0.0 5.0 5 ------- null}
+ -t 0.210746666666667 -s 3 -d 5 -p tcp -e 1040 -c 0 -i 8 -a 0 -x {0.0 5.0 5 ------- null}
- -t 0.210746666666667 -s 3 -d 5 -p tcp -e 1040 -c 0 -i 8 -a 0 -x {0.0 5.0 5 ------- null}
h -t 0.210746666666667 -s 3 -d 5 -p tcp -e 1040 -c 0 -i 8 -a 0 -x {0.0 5.0 -1 ------- null}
r -t 0.215413333333333 -s 5 -d 3 -p ack -e 40 -c 0 -i 10 -a 0 -x {5.0 0.0 3 ------- null}
+ -t 0.215413333333333 -s 3 -d 2 -p ack -e 40 -c 0 -i 10 -a 0 -x {5.0 0.0 3 ------- null}
- -t 0.215413333333333 -s 3 -d 2 -p ack -e 40 -c 0 -i 10 -a 0 -x {5.0 0.0 3 ------- null}
h -t 0.215413333333333 -s 3 -d 2 -p ack -e 40 -c 0 -i 10 -a 0 -x {5.0 0.0 -1 ------- null}
r -t 0.215746666666667 -s 3 -d 5 -p tcp -e 1040 -c 0 -i 7 -a 0 -x {0.0 5.0 4 ------- null}
+ -t 0.215746666666667 -s 5 -d 3 -p ack -e 40 -c 0 -i 11 -a 0 -x {5.0 0.0 4 ------- null}
- -t 0.215746666666667 -s 5 -d 3 -p ack -e 40 -c 0 -i 11 -a 0 -x {5.0 0.0 4 ------- null}
h -t 0.215746666666667 -s 5 -d 3 -p ack -e 40 -c 0 -i 11 -a 0 -x {5.0 0.0 -1 ------- null}
r -t 0.216293333333333 -s 2 -d 3 -p tcp -e 1040 -c 0 -i 9 -a 0 -x {0.0 5.0 6 ------- null}
+ -t 0.216293333333333 -s 3 -d 5 -p tcp -e 1040 -c 0 -i 9 -a 0 -x {0.0 5.0 6 ------- null}
- -t 0.216293333333333 -s 3 -d 5 -p tcp -e 1040 -c 0 -i 9 -a 0 -x {0.0 5.0 6 ------- null}
h -t 0.216293333333333 -s 3 -d 5 -p tcp -e 1040 -c 0 -i 9 -a 0 -x {0.0 5.0 -1 ------- null}
r -t 0.220626666666667 -s 3 -d 2 -p ack -e 40 -c 0 -i 10 -a 0 -x {5.0 0.0 3 ------- null}
+ -t 0.220626666666667 -s 2 -d 0 -p ack -e 40 -c 0 -i 10 -a 0 -x {5.0 0.0 3 ------- null}
- -t 0.220626666666667 -s 2 -d 0 -p ack -e 40 -c 0 -i 10 -a 0 -x {5.0 0.0 3 ------- null}
h -t 0.220626666666667 -s 2 -d 0 -p ack -e 40 -c 0 -i 10 -a 0 -x {5.0 0.0 -1 ------- null}
r -t 0.22096 -s 5 -d 3 -p ack -e 40 -c 0 -i 11 -a 0 -x {5.0 0.0 4 ------- null}
+ -t 0.22096 -s 3 -d 2 -p ack -e 40 -c 0 -i 11 -a 0 -x {5.0 0.0 4 ------- null}
- -t 0.22096 -s 3 -d 2 -p ack -e 40 -c 0 -i 11 -a 0 -x {5.0 0.0 4 ------- null}
h -t 0.22096 -s 3 -d 2 -p ack -e 40 -c 0 -i 11 -a 0 -x {5.0 0.0 -1 ------- null}
r -t 0.221293333333333 -s 3 -d 5 -p tcp -e 1040 -c 0 -i 8 -a 0 -x {0.0 5.0 5 ------- null}
+ -t 0.221293333333333 -s 5 -d 3 -p ack -e 40 -c 0 -i 12 -a 0 -x {5.0 0.0 5 ------- null}
- -t 0.221293333333333 -s 5 -d 3 -p ack -e 40 -c 0 -i 12 -a 0 -x {5.0 0.0 5 ------- null}
h -t 0.221293333333333 -s 5 -d 3 -p ack -e 40 -c 0 -i 12 -a 0 -x {5.0 0.0 -1 ------- null}
r -t 0.22584 -s 2 -d 0 -p ack -e 40 -c 0 -i 10 -a 0 -x {5.0 0.0 3 ------- null}
+ -t 0.22584 -s 0 -d 2 -p tcp -e 1040 -c 0 -i 13 -a 0 -x {0.0 5.0 7 ------- null}
- -t 0.22584 -s 0 -d 2 -p tcp -e 1040 -c 0 -i 13 -a 0 -x {0.0 5.0 7 ------- null}
h -t 0.22584 -s 0 -d 2 -p tcp -e 1040 -c 0 -i 13 -a 0 -x {0.0 5.0 -1 ------- null}
+ -t 0.22584 -s 0 -d 2 -p tcp -e 1040 -c 0 -i 14 -a 0 -x {0.0 5.0 8 ------- null}
r -t 0.226173333333333 -s 3 -d 2 -p ack -e 40 -c 0 -i 11 -a 0 -x {5.0 0.0 4 ------- null}
+ -t 0.226173333333333 -s 2 -d 0 -p ack -e 40 -c 0 -i 11 -a 0 -x {5.0 0.0 4 ------- null}
- -t 0.226173333333333 -s 2 -d 0 -p ack -e 40 -c 0 -i 11 -a 0 -x {5.0 0.0 4 ------- null}
h -t 0.226173333333333 -s 2 -d 0 -p ack -e 40 -c 0 -i 11 -a 0 -x {5.0 0.0 -1 ------- null}
r -t 0.226506666666667 -s 5 -d 3 -p ack -e 40 -c 0 -i 12 -a 0 -x {5.0 0.0 5 ------- null}
+ -t 0.226506666666667 -s 3 -d 2 -p ack -e 40 -c 0 -i 12 -a 0 -x {5.0 0.0 5 ------- null}
- -t 0.226506666666667 -s 3 -d 2 -p ack -e 40 -c 0 -i 12 -a 0 -x {5.0 0.0 5 ------- null}
h -t 0.226506666666667 -s 3 -d 2 -p ack -e 40 -c 0 -i 12 -a 0 -x {5.0 0.0 -1 ------- null}
r -t 0.22684 -s 3 -d 5 -p tcp -e 1040 -c 0 -i 9 -a 0 -x {0.0 5.0 6 ------- null}
+ -t 0.22684 -s 5 -d 3 -p ack -e 40 -c 0 -i 15 -a 0 -x {5.0 0.0 6 ------- null}
- -t 0.22684 -s 5 -d 3 -p ack -e 40 -c 0 -i 15 -a 0 -x {5.0 0.0 6 ------- null}
h -t 0.22684 -s 5 -d 3 -p ack -e 40 -c 0 -i 15 -a 0 -x {5.0 0.0 -1 ------- null}
- -t 0.231386666666667 -s 0 -d 2 -p tcp -e 1040 -c 0 -i 14 -a 0 -x {0.0 5.0 8 ------- null}
h -t 0.231386666666667 -s 0 -d 2 -p tcp -e 1040 -c 0 -i 14 -a 0 -x {0.0 5.0 -1 ------- null}
r -t 0.231386666666667 -s 2 -d 0 -p ack -e 40 -c 0 -i 11 -a 0 -x {5.0 0.0 4 ------- null}
+ -t 0.231386666666667 -s 0 -d 2 -p tcp -e 1040 -c 0 -i 16 -a 0 -x {0.0 5.0 9 ------- null}
+ -t 0.231386666666667 -s 0 -d 2 -p tcp -e 1040 -c 0 -i 17 -a 0 -x {0.0 5.0 10 ------- null}
r -t 0.23172 -s 3 -d 2 -p ack -e 40 -c 0 -i 12 -a 0 -x {5.0 0.0 5 ------- null}
+ -t 0.23172 -s 2 -d 0 -p ack -e 40 -c 0 -i 12 -a 0 -x {5.0 0.0 5 ------- null}
- -t 0.23172 -s 2 -d 0 -p ack -e 40 -c 0 -i 12 -a 0 -x {5.0 0.0 5 ------- null}
h -t 0.23172 -s 2 -d 0 -p ack -e 40 -c 0 -i 12 -a 0 -x {5.0 0.0 -1 ------- null}
r -t 0.232053333333333 -s 5 -d 3 -p ack -e 40 -c 0 -i 15 -a 0 -x {5.0 0.0 6 ------- null}
+ -t 0.232053333333333 -s 3 -d 2 -p ack -e 40 -c 0 -i 15 -a 0 -x {5.0 0.0 6 ------- null}
- -t 0.232053333333333 -s 3 -d 2 -p ack -e 40 -c 0 -i 15 -a 0 -x {5.0 0.0 6 ------- null}
h -t 0.232053333333333 -s 3 -d 2 -p ack -e 40 -c 0 -i 15 -a 0 -x {5.0 0.0 -1 ------- null}
r -t 0.236386666666667 -s 0 -d 2 -p tcp -e 1040 -c 0 -i 13 -a 0 -x {0.0 5.0 7 ------- null}
+ -t 0.236386666666667 -s 2 -d 3 -p tcp -e 1040 -c 0 -i 13 -a 0 -x {0.0 5.0 7 ------- null}
- -t 0.236386666666667 -s 2 -d 3 -p tcp -e 1040 -c 0 -i 13 -a 0 -x {0.0 5.0 7 ------- null}
h -t 0.236386666666667 -s 2 -d 3 -p tcp -e 1040 -c 0 -i 13 -a 0 -x {0.0 5.0 -1 ------- null}
- -t 0.236933333333333 -s 0 -d 2 -p tcp -e 1040 -c 0 -i 16 -a 0 -x {0.0 5.0 9 ------- null}
h -t 0.236933333333333 -s 0 -d 2 -p tcp -e 1040 -c 0 -i 16 -a 0 -x {0.0 5.0 -1 ------- null}
r -t 0.236933333333333 -s 2 -d 0 -p ack -e 40 -c 0 -i 12 -a 0 -x {5.0 0.0 5 ------- null}
+ -t 0.236933333333333 -s 0 -d 2 -p tcp -e 1040 -c 0 -i 18 -a 0 -x {0.0 5.0 11 ------- null}
+ -t 0.236933333333333 -s 0 -d 2 -p tcp -e 1040 -c 0 -i 19 -a 0 -x {0.0 5.0 12 ------- null}
r -t 0.237266666666667 -s 3 -d 2 -p ack -e 40 -c 0 -i 15 -a 0 -x {5.0 0.0 6 ------- null}
+ -t 0.237266666666667 -s 2 -d 0 -p ack -e 40 -c 0 -i 15 -a 0 -x {5.0 0.0 6 ------- null}
- -t 0.237266666666667 -s 2 -d 0 -p ack -e 40 -c 0 -i 15 -a 0 -x {5.0 0.0 6 ------- null}
h -t 0.237266666666667 -s 2 -d 0 -p ack -e 40 -c 0 -i 15 -a 0 -x {5.0 0.0 -1 ------- null}
r -t 0.241933333333333 -s 0 -d 2 -p tcp -e 1040 -c 0 -i 14 -a 0 -x {0.0 5.0 8 ------- null}
+ -t 0.241933333333333 -s 2 -d 3 -p tcp -e 1040 -c 0 -i 14 -a 0 -x {0.0 5.0 8 ------- null}
- -t 0.241933333333333 -s 2 -d 3 -p tcp -e 1040 -c 0 -i 14 -a 0 -x {0.0 5.0 8 ------- null}
h -t 0.241933333333333 -s 2 -d 3 -p tcp -e 1040 -c 0 -i 14 -a 0 -x {0.0 5.0 -1 ------- null}
- -t 0.24248 -s 0 -d 2 -p tcp -e 1040 -c 0 -i 17 -a 0 -x {0.0 5.0 10 ------- null}
h -t 0.24248 -s 0 -d 2 -p tcp -e 1040 -c 0 -i 17 -a 0 -x {0.0 5.0 -1 ------- null}
r -t 0.24248 -s 2 -d 0 -p ack -e 40 -c 0 -i 15 -a 0 -x {5.0 0.0 6 ------- null}
+ -t 0.24248 -s 0 -d 2 -p tcp -e 1040 -c 0 -i 20 -a 0 -x {0.0 5.0 13 ------- null}
+ -t 0.24248 -s 0 -d 2 -p tcp -e 1040 -c 0 -i 21 -a 0 -x {0.0 5.0 14 ------- null}
r -t 0.246933333333333 -s 2 -d 3 -p tcp -e 1040 -c 0 -i 13 -a 0 -x {0.0 5.0 7 ------- null}
+ -t 0.246933333333333 -s 3 -d 5 -p tcp -e 1040 -c 0 -i 13 -a 0 -x {0.0 5.0 7 ------- null}
- -t 0.246933333333333 -s 3 -d 5 -p tcp -e 1040 -c 0 -i 13 -a 0 -x {0.0 5.0 7 ------- null}
h -t 0.246933333333333 -s 3 -d 5 -p tcp -e 1040 -c 0 -i 13 -a 0 -x {0.0 5.0 -1 ------- null}
r -t 0.24748 -s 0 -d 2 -p tcp -e 1040 -c 0 -i 16 -a 0 -x {0.0 5.0 9 ------- null}
+ -t 0.24748 -s 2 -d 3 -p tcp -e 1040 -c 0 -i 16 -a 0 -x {0.0 5.0 9 ------- null}
- -t 0.24748 -s 2 -d 3 -p tcp -e 1040 -c 0 -i 16 -a 0 -x {0.0 5.0 9 ------- null}
h -t 0.24748 -s 2 -d 3 -p tcp -e 1040 -c 0 -i 16 -a 0 -x {0.0 5.0 -1 ------- null}
- -t 0.248026666666667 -s 0 -d 2 -p tcp -e 1040 -c 0 -i 18 -a 0 -x {0.0 5.0 11 ------- null}
h -t 0.248026666666667 -s 0 -d 2 -p tcp -e 1040 -c 0 -i 18 -a 0 -x {0.0 5.0 -1 ------- null}
r -t 0.25248 -s 2 -d 3 -p tcp -e 1040 -c 0 -i 14 -a 0 -x {0.0 5.0 8 ------- null}
+ -t 0.25248 -s 3 -d 5 -p tcp -e 1040 -c 0 -i 14 -a 0 -x {0.0 5.0 8 ------- null}
- -t 0.25248 -s 3 -d 5 -p tcp -e 1040 -c 0 -i 14 -a 0 -x {0.0 5.0 8 ------- null}
h -t 0.25248 -s 3 -d 5 -p tcp -e 1040 -c 0 -i 14 -a 0 -x {0.0 5.0 -1 ------- null}
r -t 0.253026666666667 -s 0 -d 2 -p tcp -e 1040 -c 0 -i 17 -a 0 -x {0.0 5.0 10 ------- null}
+ -t 0.253026666666667 -s 2 -d 3 -p tcp -e 1040 -c 0 -i 17 -a 0 -x {0.0 5.0 10 ------- null}
- -t 0.253026666666667 -s 2 -d 3 -p tcp -e 1040 -c 0 -i 17 -a 0 -x {0.0 5.0 10 ------- null}
h -t 0.253026666666667 -s 2 -d 3 -p tcp -e 1040 -c 0 -i 17 -a 0 -x {0.0 5.0 -1 ------- null}
- -t 0.253573333333333 -s 0 -d 2 -p tcp -e 1040 -c 0 -i 19 -a 0 -x {0.0 5.0 12 ------- null}
h -t 0.253573333333333 -s 0 -d 2 -p tcp -e 1040 -c 0 -i 19 -a 0 -x {0.0 5.0 -1 ------- null}
r -t 0.25748 -s 3 -d 5 -p tcp -e 1040 -c 0 -i 13 -a 0 -x {0.0 5.0 7 ------- null}
+ -t 0.25748 -s 5 -d 3 -p ack -e 40 -c 0 -i 22 -a 0 -x {5.0 0.0 7 ------- null}
- -t 0.25748 -s 5 -d 3 -p ack -e 40 -c 0 -i 22 -a 0 -x {5.0 0.0 7 ------- null}
h -t 0.25748 -s 5 -d 3 -p ack -e 40 -c 0 -i 22 -a 0 -x {5.0 0.0 -1 ------- null}
r -t 0.258026666666667 -s 2 -d 3 -p tcp -e 1040 -c 0 -i 16 -a 0 -x {0.0 5.0 9 ------- null}
+ -t 0.258026666666667 -s 3 -d 5 -p tcp -e 1040 -c 0 -i 16 -a 0 -x {0.0 5.0 9 ------- null}
- -t 0.258026666666667 -s 3 -d 5 -p tcp -e 1040 -c 0 -i 16 -a 0 -x {0.0 5.0 9 ------- null}
h -t 0.258026666666667 -s 3 -d 5 -p tcp -e 1040 -c 0 -i 16 -a 0 -x {0.0 5.0 -1 ------- null}
r -t 0.258573333333333 -s 0 -d 2 -p tcp -e 1040 -c 0 -i 18 -a 0 -x {0.0 5.0 11 ------- null}
+ -t 0.258573333333333 -s 2 -d 3 -p tcp -e 1040 -c 0 -i 18 -a 0 -x {0.0 5.0 11 ------- null}
- -t 0.258573333333333 -s 2 -d 3 -p tcp -e 1040 -c 0 -i 18 -a 0 -x {0.0 5.0 11 ------- null}
h -t 0.258573333333333 -s 2 -d 3 -p tcp -e 1040 -c 0 -i 18 -a 0 -x {0.0 5.0 -1 ------- null}
- -t 0.25912 -s 0 -d 2 -p tcp -e 1040 -c 0 -i 20 -a 0 -x {0.0 5.0 13 ------- null}
h -t 0.25912 -s 0 -d 2 -p tcp -e 1040 -c 0 -i 20 -a 0 -x {0.0 5.0 -1 ------- null}
r -t 0.262693333333333 -s 5 -d 3 -p ack -e 40 -c 0 -i 22 -a 0 -x {5.0 0.0 7 ------- null}
+ -t 0.262693333333333 -s 3 -d 2 -p ack -e 40 -c 0 -i 22 -a 0 -x {5.0 0.0 7 ------- null}
- -t 0.262693333333333 -s 3 -d 2 -p ack -e 40 -c 0 -i 22 -a 0 -x {5.0 0.0 7 ------- null}
h -t 0.262693333333333 -s 3 -d 2 -p ack -e 40 -c 0 -i 22 -a 0 -x {5.0 0.0 -1 ------- null}
r -t 0.263026666666667 -s 3 -d 5 -p tcp -e 1040 -c 0 -i 14 -a 0 -x {0.0 5.0 8 ------- null}
+ -t 0.263026666666667 -s 5 -d 3 -p ack -e 40 -c 0 -i 23 -a 0 -x {5.0 0.0 8 ------- null}
- -t 0.263026666666667 -s 5 -d 3 -p ack -e 40 -c 0 -i 23 -a 0 -x {5.0 0.0 8 ------- null}
h -t 0.263026666666667 -s 5 -d 3 -p ack -e 40 -c 0 -i 23 -a 0 -x {5.0 0.0 -1 ------- null}
r -t 0.263573333333333 -s 2 -d 3 -p tcp -e 1040 -c 0 -i 17 -a 0 -x {0.0 5.0 10 ------- null}
+ -t 0.263573333333333 -s 3 -d 5 -p tcp -e 1040 -c 0 -i 17 -a 0 -x {0.0 5.0 10 ------- null}
- -t 0.263573333333333 -s 3 -d 5 -p tcp -e 1040 -c 0 -i 17 -a 0 -x {0.0 5.0 10 ------- null}
h -t 0.263573333333333 -s 3 -d 5 -p tcp -e 1040 -c 0 -i 17 -a 0 -x {0.0 5.0 -1 ------- null}
r -t 0.26412 -s 0 -d 2 -p tcp -e 1040 -c 0 -i 19 -a 0 -x {0.0 5.0 12 ------- null}
+ -t 0.26412 -s 2 -d 3 -p tcp -e 1040 -c 0 -i 19 -a 0 -x {0.0 5.0 12 ------- null}
- -t 0.26412 -s 2 -d 3 -p tcp -e 1040 -c 0 -i 19 -a 0 -x {0.0 5.0 12 ------- null}
h -t 0.26412 -s 2 -d 3 -p tcp -e 1040 -c 0 -i 19 -a 0 -x {0.0 5.0 -1 ------- null}
- -t 0.264666666666667 -s 0 -d 2 -p tcp -e 1040 -c 0 -i 21 -a 0 -x {0.0 5.0 14 ------- null}
h -t 0.264666666666667 -s 0 -d 2 -p tcp -e 1040 -c 0 -i 21 -a 0 -x {0.0 5.0 -1 ------- null}
r -t 0.267906666666667 -s 3 -d 2 -p ack -e 40 -c 0 -i 22 -a 0 -x {5.0 0.0 7 ------- null}
+ -t 0.267906666666667 -s 2 -d 0 -p ack -e 40 -c 0 -i 22 -a 0 -x {5.0 0.0 7 ------- null}
- -t 0.267906666666667 -s 2 -d 0 -p ack -e 40 -c 0 -i 22 -a 0 -x {5.0 0.0 7 ------- null}
h -t 0.267906666666667 -s 2 -d 0 -p ack -e 40 -c 0 -i 22 -a 0 -x {5.0 0.0 -1 ------- null}
r -t 0.26824 -s 5 -d 3 -p ack -e 40 -c 0 -i 23 -a 0 -x {5.0 0.0 8 ------- null}
+ -t 0.26824 -s 3 -d 2 -p ack -e 40 -c 0 -i 23 -a 0 -x {5.0 0.0 8 ------- null}
- -t 0.26824 -s 3 -d 2 -p ack -e 40 -c 0 -i 23 -a 0 -x {5.0 0.0 8 ------- null}
h -t 0.26824 -s 3 -d 2 -p ack -e 40 -c 0 -i 23 -a 0 -x {5.0 0.0 -1 ------- null}
r -t 0.268573333333333 -s 3 -d 5 -p tcp -e 1040 -c 0 -i 16 -a 0 -x {0.0 5.0 9 ------- null}
+ -t 0.268573333333333 -s 5 -d 3 -p ack -e 40 -c 0 -i 24 -a 0 -x {5.0 0.0 9 ------- null}
- -t 0.268573333333333 -s 5 -d 3 -p ack -e 40 -c 0 -i 24 -a 0 -x {5.0 0.0 9 ------- null}
h -t 0.268573333333333 -s 5 -d 3 -p ack -e 40 -c 0 -i 24 -a 0 -x {5.0 0.0 -1 ------- null}
r -t 0.26912 -s 2 -d 3 -p tcp -e 1040 -c 0 -i 18 -a 0 -x {0.0 5.0 11 ------- null}
+ -t 0.26912 -s 3 -d 5 -p tcp -e 1040 -c 0 -i 18 -a 0 -x {0.0 5.0 11 ------- null}
- -t 0.26912 -s 3 -d 5 -p tcp -e 1040 -c 0 -i 18 -a 0 -x {0.0 5.0 11 ------- null}
h -t 0.26912 -s 3 -d 5 -p tcp -e 1040 -c 0 -i 18 -a 0 -x {0.0 5.0 -1 ------- null}
r -t 0.269666666666667 -s 0 -d 2 -p tcp -e 1040 -c 0 -i 20 -a 0 -x {0.0 5.0 13 ------- null}
+ -t 0.269666666666667 -s 2 -d 3 -p tcp -e 1040 -c 0 -i 20 -a 0 -x {0.0 5.0 13 ------- null}
- -t 0.269666666666667 -s 2 -d 3 -p tcp -e 1040 -c 0 -i 20 -a 0 -x {0.0 5.0 13 ------- null}
h -t 0.269666666666667 -s 2 -d 3 -p tcp -e 1040 -c 0 -i 20 -a 0 -x {0.0 5.0 -1 ------- null}
r -t 0.27312 -s 2 -d 0 -p ack -e 40 -c 0 -i 22 -a 0 -x {5.0 0.0 7 ------- null}
+ -t 0.27312 -s 0 -d 2 -p tcp -e 1040 -c 0 -i 25 -a 0 -x {0.0 5.0 15 ------- null}
- -t 0.27312 -s 0 -d 2 -p tcp -e 1040 -c 0 -i 25 -a 0 -x {0.0 5.0 15 ------- null}
h -t 0.27312 -s 0 -d 2 -p tcp -e 1040 -c 0 -i 25 -a 0 -x {0.0 5.0 -1 ------- null}
+ -t 0.27312 -s 0 -d 2 -p tcp -e 1040 -c 0 -i 26 -a 0 -x {0.0 5.0 16 ------- null}
r -t 0.273453333333333 -s 3 -d 2 -p ack -e 40 -c 0 -i 23 -a 0 -x {5.0 0.0 8 ------- null}
+ -t 0.273453333333333 -s 2 -d 0 -p ack -e 40 -c 0 -i 23 -a 0 -x {5.0 0.0 8 ------- null}
- -t 0.273453333333333 -s 2 -d 0 -p ack -e 40 -c 0 -i 23 -a 0 -x {5.0 0.0 8 ------- null}
h -t 0.273453333333333 -s 2 -d 0 -p ack -e 40 -c 0 -i 23 -a 0 -x {5.0 0.0 -1 ------- null}
r -t 0.273786666666667 -s 5 -d 3 -p ack -e 40 -c 0 -i 24 -a 0 -x {5.0 0.0 9 ------- null}
+ -t 0.273786666666667 -s 3 -d 2 -p ack -e 40 -c 0 -i 24 -a 0 -x {5.0 0.0 9 ------- null}
- -t 0.273786666666667 -s 3 -d 2 -p ack -e 40 -c 0 -i 24 -a 0 -x {5.0 0.0 9 ------- null}
h -t 0.273786666666667 -s 3 -d 2 -p ack -e 40 -c 0 -i 24 -a 0 -x {5.0 0.0 -1 ------- null}
r -t 0.27412 -s 3 -d 5 -p tcp -e 1040 -c 0 -i 17 -a 0 -x {0.0 5.0 10 ------- null}
+ -t 0.27412 -s 5 -d 3 -p ack -e 40 -c 0 -i 27 -a 0 -x {5.0 0.0 10 ------- null}
- -t 0.27412 -s 5 -d 3 -p ack -e 40 -c 0 -i 27 -a 0 -x {5.0 0.0 10 ------- null}
h -t 0.27412 -s 5 -d 3 -p ack -e 40 -c 0 -i 27 -a 0 -x {5.0 0.0 -1 ------- null}
r -t 0.274666666666667 -s 2 -d 3 -p tcp -e 1040 -c 0 -i 19 -a 0 -x {0.0 5.0 12 ------- null}
+ -t 0.274666666666667 -s 3 -d 5 -p tcp -e 1040 -c 0 -i 19 -a 0 -x {0.0 5.0 12 ------- null}
- -t 0.274666666666667 -s 3 -d 5 -p tcp -e 1040 -c 0 -i 19 -a 0 -x {0.0 5.0 12 ------- null}
h -t 0.274666666666667 -s 3 -d 5 -p tcp -e 1040 -c 0 -i 19 -a 0 -x {0.0 5.0 -1 ------- null}
r -t 0.275213333333333 -s 0 -d 2 -p tcp -e 1040 -c 0 -i 21 -a 0 -x {0.0 5.0 14 ------- null}
+ -t 0.275213333333333 -s 2 -d 3 -p tcp -e 1040 -c 0 -i 21 -a 0 -x {0.0 5.0 14 ------- null}
- -t 0.275213333333333 -s 2 -d 3 -p tcp -e 1040 -c 0 -i 21 -a 0 -x {0.0 5.0 14 ------- null}
h -t 0.275213333333333 -s 2 -d 3 -p tcp -e 1040 -c 0 -i 21 -a 0 -x {0.0 5.0 -1 ------- null}
- -t 0.278666666666667 -s 0 -d 2 -p tcp -e 1040 -c 0 -i 26 -a 0 -x {0.0 5.0 16 ------- null}
h -t 0.278666666666667 -s 0 -d 2 -p tcp -e 1040 -c 0 -i 26 -a 0 -x {0.0 5.0 -1 ------- null}
r -t 0.278666666666667 -s 2 -d 0 -p ack -e 40 -c 0 -i 23 -a 0 -x {5.0 0.0 8 ------- null}
+ -t 0.278666666666667 -s 0 -d 2 -p tcp -e 1040 -c 0 -i 28 -a 0 -x {0.0 5.0 17 ------- null}
+ -t 0.278666666666667 -s 0 -d 2 -p tcp -e 1040 -c 0 -i 29 -a 0 -x {0.0 5.0 18 ------- null}
r -t 0.279 -s 3 -d 2 -p ack -e 40 -c 0 -i 24 -a 0 -x {5.0 0.0 9 ------- null}
+ -t 0.279 -s 2 -d 0 -p ack -e 40 -c 0 -i 24 -a 0 -x {5.0 0.0 9 ------- null}
- -t 0.279 -s 2 -d 0 -p ack -e 40 -c 0 -i 24 -a 0 -x {5.0 0.0 9 ------- null}
h -t 0.279 -s 2 -d 0 -p ack -e 40 -c 0 -i 24 -a 0 -x {5.0 0.0 -1 ------- null}
r -t 0.279333333333333 -s 5 -d 3 -p ack -e 40 -c 0 -i 27 -a 0 -x {5.0 0.0 10 ------- null}
+ -t 0.279333333333333 -s 3 -d 2 -p ack -e 40 -c 0 -i 27 -a 0 -x {5.0 0.0 10 ------- null}
- -t 0.279333333333333 -s 3 -d 2 -p ack -e 40 -c 0 -i 27 -a 0 -x {5.0 0.0 10 ------- null}
h -t 0.279333333333333 -s 3 -d 2 -p ack -e 40 -c 0 -i 27 -a 0 -x {5.0 0.0 -1 ------- null}
r -t 0.279666666666667 -s 3 -d 5 -p tcp -e 1040 -c 0 -i 18 -a 0 -x {0.0 5.0 11 ------- null}
+ -t 0.279666666666667 -s 5 -d 3 -p ack -e 40 -c 0 -i 30 -a 0 -x {5.0 0.0 11 ------- null}
- -t 0.279666666666667 -s 5 -d 3 -p ack -e 40 -c 0 -i 30 -a 0 -x {5.0 0.0 11 ------- null}
h -t 0.279666666666667 -s 5 -d 3 -p ack -e 40 -c 0 -i 30 -a 0 -x {5.0 0.0 -1 ------- null}
r -t 0.280213333333333 -s 2 -d 3 -p tcp -e 1040 -c 0 -i 20 -a 0 -x {0.0 5.0 13 ------- null}
+ -t 0.280213333333333 -s 3 -d 5 -p tcp -e 1040 -c 0 -i 20 -a 0 -x {0.0 5.0 13 ------- null}
- -t 0.280213333333333 -s 3 -d 5 -p tcp -e 1040 -c 0 -i 20 -a 0 -x {0.0 5.0 13 ------- null}
h -t 0.280213333333333 -s 3 -d 5 -p tcp -e 1040 -c 0 -i 20 -a 0 -x {0.0 5.0 -1 ------- null}
r -t 0.283666666666667 -s 0 -d 2 -p tcp -e 1040 -c 0 -i 25 -a 0 -x {0.0 5.0 15 ------- null}
+ -t 0.283666666666667 -s 2 -d 3 -p tcp -e 1040 -c 0 -i 25 -a 0 -x {0.0 5.0 15 ------- null}
- -t 0.283666666666667 -s 2 -d 3 -p tcp -e 1040 -c 0 -i 25 -a 0 -x {0.0 5.0 15 ------- null}
h -t 0.283666666666667 -s 2 -d 3 -p tcp -e 1040 -c 0 -i 25 -a 0 -x {0.0 5.0 -1 ------- null}
- -t 0.284213333333333 -s 0 -d 2 -p tcp -e 1040 -c 0 -i 28 -a 0 -x {0.0 5.0 17 ------- null}
h -t 0.284213333333333 -s 0 -d 2 -p tcp -e 1040 -c 0 -i 28 -a 0 -x {0.0 5.0 -1 ------- null}
r -t 0.284213333333333 -s 2 -d 0 -p ack -e 40 -c 0 -i 24 -a 0 -x {5.0 0.0 9 ------- null}
+ -t 0.284213333333333 -s 0 -d 2 -p tcp -e 1040 -c 0 -i 31 -a 0 -x {0.0 5.0 19 ------- null}
+ -t 0.284213333333333 -s 0 -d 2 -p tcp -e 1040 -c 0 -i 32 -a 0 -x {0.0 5.0 20 ------- null}
r -t 0.284546666666667 -s 3 -d 2 -p ack -e 40 -c 0 -i 27 -a 0 -x {5.0 0.0 10 ------- null}
+ -t 0.284546666666667 -s 2 -d 0 -p ack -e 40 -c 0 -i 27 -a 0 -x {5.0 0.0 10 ------- null}
- -t 0.284546666666667 -s 2 -d 0 -p ack -e 40 -c 0 -i 27 -a 0 -x {5.0 0.0 10 ------- null}
h -t 0.284546666666667 -s 2 -d 0 -p ack -e 40 -c 0 -i 27 -a 0 -x {5.0 0.0 -1 ------- null}
r -t 0.28488 -s 5 -d 3 -p ack -e 40 -c 0 -i 30 -a 0 -x {5.0 0.0 11 ------- null}
+ -t 0.28488 -s 3 -d 2 -p ack -e 40 -c 0 -i 30 -a 0 -x {5.0 0.0 11 ------- null}
- -t 0.28488 -s 3 -d 2 -p ack -e 40 -c 0 -i 30 -a 0 -x {5.0 0.0 11 ------- null}
h -t 0.28488 -s 3 -d 2 -p ack -e 40 -c 0 -i 30 -a 0 -x {5.0 0.0 -1 ------- null}
r -t 0.285213333333333 -s 3 -d 5 -p tcp -e 1040 -c 0 -i 19 -a 0 -x {0.0 5.0 12 ------- null}
+ -t 0.285213333333333 -s 5 -d 3 -p ack -e 40 -c 0 -i 33 -a 0 -x {5.0 0.0 12 ------- null}
- -t 0.285213333333333 -s 5 -d 3 -p ack -e 40 -c 0 -i 33 -a 0 -x {5.0 0.0 12 ------- null}
h -t 0.285213333333333 -s 5 -d 3 -p ack -e 40 -c 0 -i 33 -a 0 -x {5.0 0.0 -1 ------- null}
r -t 0.28576 -s 2 -d 3 -p tcp -e 1040 -c 0 -i 21 -a 0 -x {0.0 5.0 14 ------- null}