+ 0.1 0 1 tcp 40 ------- 1 0.0 3.0 0 0
- 0.1 0 1 tcp 40 ------- 1 0.0 3.0 0 0
+ 0.1 1 2 cbr 210 ------- 2 1.0 3.1 0 1
- 0.1 1 2 cbr 210 ------- 2 1.0 3.1 0 1
+ 0.10375 1 2 cbr 210 ------- 2 1.0 3.1 1 2
- 0.10375 1 2 cbr 210 ------- 2 1.0 3.1 1 2
r 0.105213 0 1 tcp 40 ------- 1 0.0 3.0 0 0
+ 0.105213 1 2 tcp 40 ------- 1 0.0 3.0 0 0
- 0.105213 1 2 tcp 40 ------- 1 0.0 3.0 0 0
r 0.10612 1 2 cbr 210 ------- 2 1.0 3.1 0 1
+ 0.10612 2 3 cbr 210 ------- 2 1.0 3.1 0 1
- 0.10612 2 3 cbr 210 ------- 2 1.0 3.1 0 1
+ 0.1075 1 2 cbr 210 ------- 2 1.0 3.1 2 3
- 0.1075 1 2 cbr 210 ------- 2 1.0 3.1 2 3
r 0.10987 1 2 cbr 210 ------- 2 1.0 3.1 1 2
+ 0.10987 2 3 cbr 210 ------- 2 1.0 3.1 1 2
- 0.10987 2 3 cbr 210 ------- 2 1.0 3.1 1 2
r 0.110427 1 2 tcp 40 ------- 1 0.0 3.0 0 0
+ 0.110427 2 3 tcp 40 ------- 1 0.0 3.0 0 0
- 0.11099 2 3 tcp 40 ------- 1 0.0 3.0 0 0
+ 0.11125 1 2 cbr 210 ------- 2 1.0 3.1 3 4
- 0.11125 1 2 cbr 210 ------- 2 1.0 3.1 3 4
r 0.11224 2 3 cbr 210 ------- 2 1.0 3.1 0 1
r 0.11362 1 2 cbr 210 ------- 2 1.0 3.1 2 3
+ 0.11362 2 3 cbr 210 ------- 2 1.0 3.1 2 3
- 0.11362 2 3 cbr 210 ------- 2 1.0 3.1 2 3
+ 0.115 1 2 cbr 210 ------- 2 1.0 3.1 4 5
- 0.115 1 2 cbr 210 ------- 2 1.0 3.1 4 5
r 0.11599 2 3 cbr 210 ------- 2 1.0 3.1 1 2
r 0.116203 2 3 tcp 40 ------- 1 0.0 3.0 0 0
+ 0.116203 3 2 ack 40 ------- 1 3.0 0.0 0 6
- 0.116203 3 2 ack 40 ------- 1 3.0 0.0 0 6
r 0.11737 1 2 cbr 210 ------- 2 1.0 3.1 3 4
+ 0.11737 2 3 cbr 210 ------- 2 1.0 3.1 3 4
- 0.11737 2 3 cbr 210 ------- 2 1.0 3.1 3 4
+ 0.11875 1 2 cbr 210 ------- 2 1.0 3.1 5 7
- 0.11875 1 2 cbr 210 ------- 2 1.0 3.1 5 7
r 0.11974 2 3 cbr 210 ------- 2 1.0 3.1 2 3
r 0.12112 1 2 cbr 210 ------- 2 1.0 3.1 4 5
+ 0.12112 2 3 cbr 210 ------- 2 1.0 3.1 4 5
- 0.12112 2 3 cbr 210 ------- 2 1.0 3.1 4 5
r 0.121417 3 2 ack 40 ------- 1 3.0 0.0 0 6
+ 0.121417 2 1 ack 40 ------- 1 3.0 0.0 0 6
- 0.121417 2 1 ack 40 ------- 1 3.0 0.0 0 6
+ 0.1225 1 2 cbr 210 ------- 2 1.0 3.1 6 8
- 0.1225 1 2 cbr 210 ------- 2 1.0 3.1 6 8
r 0.12349 2 3 cbr 210 ------- 2 1.0 3.1 3 4
r 0.12487 1 2 cbr 210 ------- 2 1.0 3.1 5 7
+ 0.12487 2 3 cbr 210 ------- 2 1.0 3.1 5 7
- 0.12487 2 3 cbr 210 ------- 2 1.0 3.1 5 7
+ 0.12625 1 2 cbr 210 ------- 2 1.0 3.1 7 9
- 0.12625 1 2 cbr 210 ------- 2 1.0 3.1 7 9
r 0.12663 2 1 ack 40 ------- 1 3.0 0.0 0 6
+ 0.12663 1 0 ack 40 ------- 1 3.0 0.0 0 6
- 0.12663 1 0 ack 40 ------- 1 3.0 0.0 0 6
r 0.12724 2 3 cbr 210 ------- 2 1.0 3.1 4 5
r 0.12862 1 2 cbr 210 ------- 2 1.0 3.1 6 8
+ 0.12862 2 3 cbr 210 ------- 2 1.0 3.1 6 8
- 0.12862 2 3 cbr 210 ------- 2 1.0 3.1 6 8
+ 0.13 1 2 cbr 210 ------- 2 1.0 3.1 8 10
- 0.13 1 2 cbr 210 ------- 2 1.0 3.1 8 10
r 0.13099 2 3 cbr 210 ------- 2 1.0 3.1 5 7
r 0.131843 1 0 ack 40 ------- 1 3.0 0.0 0 6
+ 0.131843 0 1 tcp 1040 ------- 1 0.0 3.0 1 11
- 0.131843 0 1 tcp 1040 ------- 1 0.0 3.0 1 11
+ 0.131843 0 1 tcp 1040 ------- 1 0.0 3.0 2 12
r 0.13237 1 2 cbr 210 ------- 2 1.0 3.1 7 9
+ 0.13237 2 3 cbr 210 ------- 2 1.0 3.1 7 9
- 0.13237 2 3 cbr 210 ------- 2 1.0 3.1 7 9
+ 0.13375 1 2 cbr 210 ------- 2 1.0 3.1 9 13
- 0.13375 1 2 cbr 210 ------- 2 1.0 3.1 9 13
r 0.13474 2 3 cbr 210 ------- 2 1.0 3.1 6 8
r 0.13612 1 2 cbr 210 ------- 2 1.0 3.1 8 10
+ 0.13612 2 3 cbr 210 ------- 2 1.0 3.1 8 10
- 0.13612 2 3 cbr 210 ------- 2 1.0 3.1 8 10
- 0.13739 0 1 tcp 1040 ------- 1 0.0 3.0 2 12
+ 0.1375 1 2 cbr 210 ------- 2 1.0 3.1 10 14
- 0.1375 1 2 cbr 210 ------- 2 1.0 3.1 10 14
r 0.13849 2 3 cbr 210 ------- 2 1.0 3.1 7 9
r 0.13987 1 2 cbr 210 ------- 2 1.0 3.1 9 13
+ 0.13987 2 3 cbr 210 ------- 2 1.0 3.1 9 13
- 0.13987 2 3 cbr 210 ------- 2 1.0 3.1 9 13
+ 0.14125 1 2 cbr 210 ------- 2 1.0 3.1 11 15
- 0.14125 1 2 cbr 210 ------- 2 1.0 3.1 11 15
r 0.14224 2 3 cbr 210 ------- 2 1.0 3.1 8 10
r 0.14239 0 1 tcp 1040 ------- 1 0.0 3.0 1 11
+ 0.14239 1 2 tcp 1040 ------- 1 0.0 3.0 1 11
- 0.14239 1 2 tcp 1040 ------- 1 0.0 3.0 1 11
r 0.14362 1 2 cbr 210 ------- 2 1.0 3.1 10 14
+ 0.14362 2 3 cbr 210 ------- 2 1.0 3.1 10 14
- 0.14362 2 3 cbr 210 ------- 2 1.0 3.1 10 14
+ 0.145 1 2 cbr 210 ------- 2 1.0 3.1 12 16
r 0.14599 2 3 cbr 210 ------- 2 1.0 3.1 9 13
r 0.14737 1 2 cbr 210 ------- 2 1.0 3.1 11 15
+ 0.14737 2 3 cbr 210 ------- 2 1.0 3.1 11 15
- 0.14737 2 3 cbr 210 ------- 2 1.0 3.1 11 15
r 0.147937 0 1 tcp 1040 ------- 1 0.0 3.0 2 12
+ 0.147937 1 2 tcp 1040 ------- 1 0.0 3.0 2 12
- 0.147937 1 2 cbr 210 ------- 2 1.0 3.1 12 16
+ 0.14875 1 2 cbr 210 ------- 2 1.0 3.1 13 17
- 0.149057 1 2 tcp 1040 ------- 1 0.0 3.0 2 12
r 0.14974 2 3 cbr 210 ------- 2 1.0 3.1 10 14
+ 0.1525 1 2 cbr 210 ------- 2 1.0 3.1 14 18
r 0.152937 1 2 tcp 1040 ------- 1 0.0 3.0 1 11
+ 0.152937 2 3 tcp 1040 ------- 1 0.0 3.0 1 11
- 0.152937 2 3 tcp 1040 ------- 1 0.0 3.0 1 11
r 0.15349 2 3 cbr 210 ------- 2 1.0 3.1 11 15
r 0.154057 1 2 cbr 210 ------- 2 1.0 3.1 12 16
+ 0.154057 2 3 cbr 210 ------- 2 1.0 3.1 12 16
- 0.154603 1 2 cbr 210 ------- 2 1.0 3.1 13 17
- 0.155723 1 2 cbr 210 ------- 2 1.0 3.1 14 18
+ 0.15625 1 2 cbr 210 ------- 2 1.0 3.1 15 19
- 0.156843 1 2 cbr 210 ------- 2 1.0 3.1 15 19
- 0.158483 2 3 cbr 210 ------- 2 1.0 3.1 12 16
r 0.159603 1 2 tcp 1040 ------- 1 0.0 3.0 2 12
+ 0.159603 2 3 tcp 1040 ------- 1 0.0 3.0 2 12
- 0.159603 2 3 tcp 1040 ------- 1 0.0 3.0 2 12
+ 0.16 1 2 cbr 210 ------- 2 1.0 3.1 16 20
- 0.16 1 2 cbr 210 ------- 2 1.0 3.1 16 20
r 0.160723 1 2 cbr 210 ------- 2 1.0 3.1 13 17
+ 0.160723 2 3 cbr 210 ------- 2 1.0 3.1 13 17
r 0.161843 1 2 cbr 210 ------- 2 1.0 3.1 14 18
+ 0.161843 2 3 cbr 210 ------- 2 1.0 3.1 14 18
r 0.162963 1 2 cbr 210 ------- 2 1.0 3.1 15 19
+ 0.162963 2 3 cbr 210 ------- 2 1.0 3.1 15 19
r 0.163483 2 3 tcp 1040 ------- 1 0.0 3.0 1 11
+ 0.163483 3 2 ack 40 ------- 1 3.0 0.0 1 21
- 0.163483 3 2 ack 40 ------- 1 3.0 0.0 1 21
+ 0.16375 1 2 cbr 210 ------- 2 1.0 3.1 17 22
- 0.16375 1 2 cbr 210 ------- 2 1.0 3.1 17 22
r 0.164603 2 3 cbr 210 ------- 2 1.0 3.1 12 16
- 0.16515 2 3 cbr 210 ------- 2 1.0 3.1 13 17
r 0.16612 1 2 cbr 210 ------- 2 1.0 3.1 16 20
+ 0.16612 2 3 cbr 210 ------- 2 1.0 3.1 16 20
- 0.16627 2 3 cbr 210 ------- 2 1.0 3.1 14 18
- 0.16739 2 3 cbr 210 ------- 2 1.0 3.1 15 19
+ 0.1675 1 2 cbr 210 ------- 2 1.0 3.1 18 23
- 0.1675 1 2 cbr 210 ------- 2 1.0 3.1 18 23
- 0.16851 2 3 cbr 210 ------- 2 1.0 3.1 16 20
r 0.168697 3 2 ack 40 ------- 1 3.0 0.0 1 21
+ 0.168697 2 1 ack 40 ------- 1 3.0 0.0 1 21
- 0.168697 2 1 ack 40 ------- 1 3.0 0.0 1 21
r 0.16987 1 2 cbr 210 ------- 2 1.0 3.1 17 22
+ 0.16987 2 3 cbr 210 ------- 2 1.0 3.1 17 22
- 0.16987 2 3 cbr 210 ------- 2 1.0 3.1 17 22
r 0.17015 2 3 tcp 1040 ------- 1 0.0 3.0 2 12
+ 0.17015 3 2 ack 40 ------- 1 3.0 0.0 2 24
- 0.17015 3 2 ack 40 ------- 1 3.0 0.0 2 24
+ 0.17125 1 2 cbr 210 ------- 2 1.0 3.1 19 25
- 0.17125 1 2 cbr 210 ------- 2 1.0 3.1 19 25
r 0.17127 2 3 cbr 210 ------- 2 1.0 3.1 13 17
r 0.17239 2 3 cbr 210 ------- 2 1.0 3.1 14 18
r 0.17351 2 3 cbr 210 ------- 2 1.0 3.1 15 19
r 0.17362 1 2 cbr 210 ------- 2 1.0 3.1 18 23
+ 0.17362 2 3 cbr 210 ------- 2 1.0 3.1 18 23
- 0.17362 2 3 cbr 210 ------- 2 1.0 3.1 18 23
r 0.17391 2 1 ack 40 ------- 1 3.0 0.0 1 21
+ 0.17391 1 0 ack 40 ------- 1 3.0 0.0 1 21
- 0.17391 1 0 ack 40 ------- 1 3.0 0.0 1 21
r 0.17463 2 3 cbr 210 ------- 2 1.0 3.1 16 20
+ 0.175 1 2 cbr 210 ------- 2 1.0 3.1 20 26
- 0.175 1 2 cbr 210 ------- 2 1.0 3.1 20 26
r 0.175363 3 2 ack 40 ------- 1 3.0 0.0 2 24
+ 0.175363 2 1 ack 40 ------- 1 3.0 0.0 2 24
- 0.175363 2 1 ack 40 ------- 1 3.0 0.0 2 24
r 0.17599 2 3 cbr 210 ------- 2 1.0 3.1 17 22
r 0.17737 1 2 cbr 210 ------- 2 1.0 3.1 19 25
+ 0.17737 2 3 cbr 210 ------- 2 1.0 3.1 19 25
- 0.17737 2 3 cbr 210 ------- 2 1.0 3.1 19 25
+ 0.17875 1 2 cbr 210 ------- 2 1.0 3.1 21 27
- 0.17875 1 2 cbr 210 ------- 2 1.0 3.1 21 27
r 0.179123 1 0 ack 40 ------- 1 3.0 0.0 1 21
+ 0.179123 0 1 tcp 1040 ------- 1 0.0 3.0 3 28
- 0.179123 0 1 tcp 1040 ------- 1 0.0 3.0 3 28
+ 0.179123 0 1 tcp 1040 ------- 1 0.0 3.0 4 29
r 0.17974 2 3 cbr 210 ------- 2 1.0 3.1 18 23
r 0.180577 2 1 ack 40 ------- 1 3.0 0.0 2 24
+ 0.180577 1 0 ack 40 ------- 1 3.0 0.0 2 24
- 0.180577 1 0 ack 40 ------- 1 3.0 0.0 2 24
r 0.18112 1 2 cbr 210 ------- 2 1.0 3.1 20 26
+ 0.18112 2 3 cbr 210 ------- 2 1.0 3.1 20 26
- 0.18112 2 3 cbr 210 ------- 2 1.0 3.1 20 26
+ 0.1825 1 2 cbr 210 ------- 2 1.0 3.1 22 30
- 0.1825 1 2 cbr 210 ------- 2 1.0 3.1 22 30
r 0.18349 2 3 cbr 210 ------- 2 1.0 3.1 19 25
- 0.18467 0 1 tcp 1040 ------- 1 0.0 3.0 4 29
r 0.18487 1 2 cbr 210 ------- 2 1.0 3.1 21 27
+ 0.18487 2 3 cbr 210 ------- 2 1.0 3.1 21 27
- 0.18487 2 3 cbr 210 ------- 2 1.0 3.1 21 27
r 0.18579 1 0 ack 40 ------- 1 3.0 0.0 2 24
+ 0.18579 0 1 tcp 1040 ------- 1 0.0 3.0 5 31
+ 0.18579 0 1 tcp 1040 ------- 1 0.0 3.0 6 32
+ 0.18625 1 2 cbr 210 ------- 2 1.0 3.1 23 33
- 0.18625 1 2 cbr 210 ------- 2 1.0 3.1 23 33
r 0.18724 2 3 cbr 210 ------- 2 1.0 3.1 20 26
r 0.18862 1 2 cbr 210 ------- 2 1.0 3.1 22 30
+ 0.18862 2 3 cbr 210 ------- 2 1.0 3.1 22 30
- 0.18862 2 3 cbr 210 ------- 2 1.0 3.1 22 30
r 0.18967 0 1 tcp 1040 ------- 1 0.0 3.0 3 28
+ 0.18967 1 2 tcp 1040 ------- 1 0.0 3.0 3 28
- 0.18967 1 2 tcp 1040 ------- 1 0.0 3.0 3 28
+ 0.19 1 2 cbr 210 ------- 2 1.0 3.1 24 34
- 0.190217 0 1 tcp 1040 ------- 1 0.0 3.0 5 31
r 0.19099 2 3 cbr 210 ------- 2 1.0 3.1 21 27
r 0.19237 1 2 cbr 210 ------- 2 1.0 3.1 23 33
+ 0.19237 2 3 cbr 210 ------- 2 1.0 3.1 23 33
- 0.19237 2 3 cbr 210 ------- 2 1.0 3.1 23 33
+ 0.19375 1 2 cbr 210 ------- 2 1.0 3.1 25 35
r 0.19474 2 3 cbr 210 ------- 2 1.0 3.1 22 30
r 0.195217 0 1 tcp 1040 ------- 1 0.0 3.0 4 29
+ 0.195217 1 2 tcp 1040 ------- 1 0.0 3.0 4 29
- 0.195217 1 2 cbr 210 ------- 2 1.0 3.1 24 34
- 0.195763 0 1 tcp 1040 ------- 1 0.0 3.0 6 32
- 0.196337 1 2 cbr 210 ------- 2 1.0 3.1 25 35
- 0.197457 1 2 tcp 1040 ------- 1 0.0 3.0 4 29
+ 0.1975 1 2 cbr 210 ------- 2 1.0 3.1 26 36
r 0.19849 2 3 cbr 210 ------- 2 1.0 3.1 23 33
r 0.200217 1 2 tcp 1040 ------- 1 0.0 3.0 3 28
+ 0.200217 2 3 tcp 1040 ------- 1 0.0 3.0 3 28
- 0.200217 2 3 tcp 1040 ------- 1 0.0 3.0 3 28
r 0.200763 0 1 tcp 1040 ------- 1 0.0 3.0 5 31
+ 0.200763 1 2 tcp 1040 ------- 1 0.0 3.0 5 31
+ 0.20125 1 2 cbr 210 ------- 2 1.0 3.1 27 37
r 0.201337 1 2 cbr 210 ------- 2 1.0 3.1 24 34
+ 0.201337 2 3 cbr 210 ------- 2 1.0 3.1 24 34
r 0.202457 1 2 cbr 210 ------- 2 1.0 3.1 25 35
+ 0.202457 2 3 cbr 210 ------- 2 1.0 3.1 25 35
- 0.203003 1 2 cbr 210 ------- 2 1.0 3.1 26 36
- 0.204123 1 2 tcp 1040 ------- 1 0.0 3.0 5 31
+ 0.205 1 2 cbr 210 ------- 2 1.0 3.1 28 38
- 0.205763 2 3 cbr 210 ------- 2 1.0 3.1 24 34
r 0.20631 0 1 tcp 1040 ------- 1 0.0 3.0 6 32
+ 0.20631 1 2 tcp 1040 ------- 1 0.0 3.0 6 32
- 0.206883 2 3 cbr 210 ------- 2 1.0 3.1 25 35
r 0.208003 1 2 tcp 1040 ------- 1 0.0 3.0 4 29
+ 0.208003 2 3 tcp 1040 ------- 1 0.0 3.0 4 29
- 0.208003 2 3 tcp 1040 ------- 1 0.0 3.0 4 29
+ 0.20875 1 2 cbr 210 ------- 2 1.0 3.1 29 39
r 0.209123 1 2 cbr 210 ------- 2 1.0 3.1 26 36
+ 0.209123 2 3 cbr 210 ------- 2 1.0 3.1 26 36
- 0.20967 1 2 cbr 210 ------- 2 1.0 3.1 27 37
r 0.210763 2 3 tcp 1040 ------- 1 0.0 3.0 3 28
+ 0.210763 3 2 ack 40 ------- 1 3.0 0.0 3 40
- 0.210763 3 2 ack 40 ------- 1 3.0 0.0 3 40
- 0.21079 1 2 cbr 210 ------- 2 1.0 3.1 28 38
r 0.211883 2 3 cbr 210 ------- 2 1.0 3.1 24 34
- 0.21191 1 2 tcp 1040 ------- 1 0.0 3.0 6 32
+ 0.2125 1 2 cbr 210 ------- 2 1.0 3.1 30 41
r 0.213003 2 3 cbr 210 ------- 2 1.0 3.1 25 35
- 0.21355 2 3 cbr 210 ------- 2 1.0 3.1 26 36
r 0.21467 1 2 tcp 1040 ------- 1 0.0 3.0 5 31
+ 0.21467 2 3 tcp 1040 ------- 1 0.0 3.0 5 31
- 0.21467 2 3 tcp 1040 ------- 1 0.0 3.0 5 31
r 0.21579 1 2 cbr 210 ------- 2 1.0 3.1 27 37
+ 0.21579 2 3 cbr 210 ------- 2 1.0 3.1 27 37
r 0.215977 3 2 ack 40 ------- 1 3.0 0.0 3 40
+ 0.215977 2 1 ack 40 ------- 1 3.0 0.0 3 40
- 0.215977 2 1 ack 40 ------- 1 3.0 0.0 3 40
+ 0.21625 1 2 cbr 210 ------- 2 1.0 3.1 31 42
r 0.21691 1 2 cbr 210 ------- 2 1.0 3.1 28 38
+ 0.21691 2 3 cbr 210 ------- 2 1.0 3.1 28 38
- 0.217457 1 2 cbr 210 ------- 2 1.0 3.1 29 39
r 0.21855 2 3 tcp 1040 ------- 1 0.0 3.0 4 29
+ 0.21855 3 2 ack 40 ------- 1 3.0 0.0 4 43
- 0.21855 3 2 ack 40 ------- 1 3.0 0.0 4 43
- 0.218577 1 2 cbr 210 ------- 2 1.0 3.1 30 41
r 0.21967 2 3 cbr 210 ------- 2 1.0 3.1 26 36
- 0.219697 1 2 cbr 210 ------- 2 1.0 3.1 31 42
+ 0.22 1 2 cbr 210 ------- 2 1.0 3.1 32 44
- 0.220217 2 3 cbr 210 ------- 2 1.0 3.1 27 37
- 0.220817 1 2 cbr 210 ------- 2 1.0 3.1 32 44
r 0.22119 2 1 ack 40 ------- 1 3.0 0.0 3 40
+ 0.22119 1 0 ack 40 ------- 1 3.0 0.0 3 40
- 0.22119 1 0 ack 40 ------- 1 3.0 0.0 3 40
- 0.221337 2 3 cbr 210 ------- 2 1.0 3.1 28 38
r 0.222457 1 2 tcp 1040 ------- 1 0.0 3.0 6 32
+ 0.222457 2 3 tcp 1040 ------- 1 0.0 3.0 6 32
- 0.222457 2 3 tcp 1040 ------- 1 0.0 3.0 6 32
r 0.223577 1 2 cbr 210 ------- 2 1.0 3.1 29 39
+ 0.223577 2 3 cbr 210 ------- 2 1.0 3.1 29 39
+ 0.22375 1 2 cbr 210 ------- 2 1.0 3.1 33 45
- 0.22375 1 2 cbr 210 ------- 2 1.0 3.1 33 45
r 0.223763 3 2 ack 40 ------- 1 3.0 0.0 4 43
+ 0.223763 2 1 ack 40 ------- 1 3.0 0.0 4 43
- 0.223763 2 1 ack 40 ------- 1 3.0 0.0 4 43
r 0.224697 1 2 cbr 210 ------- 2 1.0 3.1 30 41
+ 0.224697 2 3 cbr 210 ------- 2 1.0 3.1 30 41
r 0.225217 2 3 tcp 1040 ------- 1 0.0 3.0 5 31
+ 0.225217 3 2 ack 40 ------- 1 3.0 0.0 5 46
- 0.225217 3 2 ack 40 ------- 1 3.0 0.0 5 46
r 0.225817 1 2 cbr 210 ------- 2 1.0 3.1 31 42
+ 0.225817 2 3 cbr 210 ------- 2 1.0 3.1 31 42
r 0.226337 2 3 cbr 210 ------- 2 1.0 3.1 27 37
r 0.226403 1 0 ack 40 ------- 1 3.0 0.0 3 40
+ 0.226403 0 1 tcp 1040 ------- 1 0.0 3.0 7 47
- 0.226403 0 1 tcp 1040 ------- 1 0.0 3.0 7 47
+ 0.226403 0 1 tcp 1040 ------- 1 0.0 3.0 8 48
r 0.226937 1 2 cbr 210 ------- 2 1.0 3.1 32 44
+ 0.226937 2 3 cbr 210 ------- 2 1.0 3.1 32 44
r 0.227457 2 3 cbr 210 ------- 2 1.0 3.1 28 38
+ 0.2275 1 2 cbr 210 ------- 2 1.0 3.1 34 49
- 0.2275 1 2 cbr 210 ------- 2 1.0 3.1 34 49
- 0.228003 2 3 cbr 210 ------- 2 1.0 3.1 29 39
r 0.228977 2 1 ack 40 ------- 1 3.0 0.0 4 43
+ 0.228977 1 0 ack 40 ------- 1 3.0 0.0 4 43
- 0.228977 1 0 ack 40 ------- 1 3.0 0.0 4 43
- 0.229123 2 3 cbr 210 ------- 2 1.0 3.1 30 41
r 0.22987 1 2 cbr 210 ------- 2 1.0 3.1 33 45
+ 0.22987 2 3 cbr 210 ------- 2 1.0 3.1 33 45
- 0.230243 2 3 cbr 210 ------- 2 1.0 3.1 31 42
r 0.23043 3 2 ack 40 ------- 1 3.0 0.0 5 46
+ 0.23043 2 1 ack 40 ------- 1 3.0 0.0 5 46
- 0.23043 2 1 ack 40 ------- 1 3.0 0.0 5 46
+ 0.23125 1 2 cbr 210 ------- 2 1.0 3.1 35 50
- 0.23125 1 2 cbr 210 ------- 2 1.0 3.1 35 50
- 0.231363 2 3 cbr 210 ------- 2 1.0 3.1 32 44
- 0.23195 0 1 tcp 1040 ------- 1 0.0 3.0 8 48
- 0.232483 2 3 cbr 210 ------- 2 1.0 3.1 33 45
r 0.233003 2 3 tcp 1040 ------- 1 0.0 3.0 6 32
+ 0.233003 3 2 ack 40 ------- 1 3.0 0.0 6 51
- 0.233003 3 2 ack 40 ------- 1 3.0 0.0 6 51
r 0.23362 1 2 cbr 210 ------- 2 1.0 3.1 34 49
+ 0.23362 2 3 cbr 210 ------- 2 1.0 3.1 34 49
- 0.23362 2 3 cbr 210 ------- 2 1.0 3.1 34 49
r 0.234123 2 3 cbr 210 ------- 2 1.0 3.1 29 39
r 0.23419 1 0 ack 40 ------- 1 3.0 0.0 4 43
+ 0.23419 0 1 tcp 1040 ------- 1 0.0 3.0 9 52
+ 0.23419 0 1 tcp 1040 ------- 1 0.0 3.0 10 53
+ 0.235 1 2 cbr 210 ------- 2 1.0 3.1 36 54
- 0.235 1 2 cbr 210 ------- 2 1.0 3.1 36 54
r 0.235243 2 3 cbr 210 ------- 2 1.0 3.1 30 41
r 0.235643 2 1 ack 40 ------- 1 3.0 0.0 5 46
+ 0.235643 1 0 ack 40 ------- 1 3.0 0.0 5 46
- 0.235643 1 0 ack 40 ------- 1 3.0 0.0 5 46
r 0.236363 2 3 cbr 210 ------- 2 1.0 3.1 31 42
r 0.23695 0 1 tcp 1040 ------- 1 0.0 3.0 7 47
+ 0.23695 1 2 tcp 1040 ------- 1 0.0 3.0 7 47
- 0.23695 1 2 tcp 1040 ------- 1 0.0 3.0 7 47
r 0.23737 1 2 cbr 210 ------- 2 1.0 3.1 35 50
+ 0.23737 2 3 cbr 210 ------- 2 1.0 3.1 35 50
- 0.23737 2 3 cbr 210 ------- 2 1.0 3.1 35 50
r 0.237483 2 3 cbr 210 ------- 2 1.0 3.1 32 44
- 0.237497 0 1 tcp 1040 ------- 1 0.0 3.0 9 52
r 0.238217 3 2 ack 40 ------- 1 3.0 0.0 6 51
+ 0.238217 2 1 ack 40 ------- 1 3.0 0.0 6 51
- 0.238217 2 1 ack 40 ------- 1 3.0 0.0 6 51
r 0.238603 2 3 cbr 210 ------- 2 1.0 3.1 33 45
+ 0.23875 1 2 cbr 210 ------- 2 1.0 3.1 37 55
r 0.23974 2 3 cbr 210 ------- 2 1.0 3.1 34 49
r 0.240857 1 0 ack 40 ------- 1 3.0 0.0 5 46
+ 0.240857 0 1 tcp 1040 ------- 1 0.0 3.0 11 56
+ 0.240857 0 1 tcp 1040 ------- 1 0.0 3.0 12 57
r 0.24112 1 2 cbr 210 ------- 2 1.0 3.1 36 54
+ 0.24112 2 3 cbr 210 ------- 2 1.0 3.1 36 54
- 0.24112 2 3 cbr 210 ------- 2 1.0 3.1 36 54
r 0.242497 0 1 tcp 1040 ------- 1 0.0 3.0 8 48
+ 0.242497 1 2 tcp 1040 ------- 1 0.0 3.0 8 48
- 0.242497 1 2 cbr 210 ------- 2 1.0 3.1 37 55
+ 0.2425 1 2 cbr 210 ------- 2 1.0 3.1 38 58
- 0.243043 0 1 tcp 1040 ------- 1 0.0 3.0 10 53
r 0.24343 2 1 ack 40 ------- 1 3.0 0.0 6 51
+ 0.24343 1 0 ack 40 ------- 1 3.0 0.0 6 51
- 0.24343 1 0 ack 40 ------- 1 3.0 0.0 6 51
r 0.24349 2 3 cbr 210 ------- 2 1.0 3.1 35 50
- 0.243617 1 2 tcp 1040 ------- 1 0.0 3.0 8 48
+ 0.24625 1 2 cbr 210 ------- 2 1.0 3.1 39 59
r 0.24724 2 3 cbr 210 ------- 2 1.0 3.1 36 54
r 0.247497 1 2 tcp 1040 ------- 1 0.0 3.0 7 47
+ 0.247497 2 3 tcp 1040 ------- 1 0.0 3.0 7 47
- 0.247497 2 3 tcp 1040 ------- 1 0.0 3.0 7 47
r 0.248043 0 1 tcp 1040 ------- 1 0.0 3.0 9 52
+ 0.248043 1 2 tcp 1040 ------- 1 0.0 3.0 9 52
- 0.24859 0 1 tcp 1040 ------- 1 0.0 3.0 11 56
r 0.248617 1 2 cbr 210 ------- 2 1.0 3.1 37 55
+ 0.248617 2 3 cbr 210 ------- 2 1.0 3.1 37 55
r 0.248643 1 0 ack 40 ------- 1 3.0 0.0 6 51
+ 0.248643 0 1 tcp 1040 ------- 1 0.0 3.0 13 60
+ 0.248643 0 1 tcp 1040 ------- 1 0.0 3.0 14 61
- 0.249163 1 2 cbr 210 ------- 2 1.0 3.1 38 58
+ 0.25 1 2 cbr 210 ------- 2 1.0 3.1 40 62
- 0.250283 1 2 cbr 210 ------- 2 1.0 3.1 39 59
- 0.251403 1 2 tcp 1040 ------- 1 0.0 3.0 9 52
- 0.253043 2 3 cbr 210 ------- 2 1.0 3.1 37 55
r 0.25359 0 1 tcp 1040 ------- 1 0.0 3.0 10 53
+ 0.25359 1 2 tcp 1040 ------- 1 0.0 3.0 10 53
+ 0.25375 1 2 cbr 210 ------- 2 1.0 3.1 41 63
- 0.254137 0 1 tcp 1040 ------- 1 0.0 3.0 12 57
r 0.254163 1 2 tcp 1040 ------- 1 0.0 3.0 8 48
+ 0.254163 2 3 tcp 1040 ------- 1 0.0 3.0 8 48
- 0.254163 2 3 tcp 1040 ------- 1 0.0 3.0 8 48
r 0.255283 1 2 cbr 210 ------- 2 1.0 3.1 38 58
+ 0.255283 2 3 cbr 210 ------- 2 1.0 3.1 38 58
r 0.256403 1 2 cbr 210 ------- 2 1.0 3.1 39 59
+ 0.256403 2 3 cbr 210 ------- 2 1.0 3.1 39 59
- 0.25695 1 2 cbr 210 ------- 2 1.0 3.1 40 62
+ 0.2575 1 2 cbr 210 ------- 2 1.0 3.1 42 64
r 0.258043 2 3 tcp 1040 ------- 1 0.0 3.0 7 47
+ 0.258043 3 2 ack 40 ------- 1 3.0 0.0 7 65
- 0.258043 3 2 ack 40 ------- 1 3.0 0.0 7 65
- 0.25807 1 2 tcp 1040 ------- 1 0.0 3.0 10 53
r 0.259137 0 1 tcp 1040 ------- 1 0.0 3.0 11 56
+ 0.259137 1 2 tcp 1040 ------- 1 0.0 3.0 11 56
r 0.259163 2 3 cbr 210 ------- 2 1.0 3.1 37 55
- 0.259683 0 1 tcp 1040 ------- 1 0.0 3.0 13 60
- 0.25971 2 3 cbr 210 ------- 2 1.0 3.1 38 58
- 0.26083 2 3 cbr 210 ------- 2 1.0 3.1 39 59
+ 0.26125 1 2 cbr 210 ------- 2 1.0 3.1 43 66
r 0.26195 1 2 tcp 1040 ------- 1 0.0 3.0 9 52
+ 0.26195 2 3 tcp 1040 ------- 1 0.0 3.0 9 52
- 0.26195 2 3 tcp 1040 ------- 1 0.0 3.0 9 52
r 0.26307 1 2 cbr 210 ------- 2 1.0 3.1 40 62
+ 0.26307 2 3 cbr 210 ------- 2 1.0 3.1 40 62
r 0.263257 3 2 ack 40 ------- 1 3.0 0.0 7 65
+ 0.263257 2 1 ack 40 ------- 1 3.0 0.0 7 65
- 0.263257 2 1 ack 40 ------- 1 3.0 0.0 7 65
- 0.263617 1 2 cbr 210 ------- 2 1.0 3.1 41 63
r 0.264683 0 1 tcp 1040 ------- 1 0.0 3.0 12 57
+ 0.264683 1 2 tcp 1040 ------- 1 0.0 3.0 12 57
r 0.26471 2 3 tcp 1040 ------- 1 0.0 3.0 8 48
+ 0.26471 3 2 ack 40 ------- 1 3.0 0.0 8 67
- 0.26471 3 2 ack 40 ------- 1 3.0 0.0 8 67
- 0.264737 1 2 cbr 210 ------- 2 1.0 3.1 42 64
+ 0.265 1 2 cbr 210 ------- 2 1.0 3.1 44 68
- 0.26523 0 1 tcp 1040 ------- 1 0.0 3.0 14 61
r 0.26583 2 3 cbr 210 ------- 2 1.0 3.1 38 58
- 0.265857 1 2 tcp 1040 ------- 1 0.0 3.0 11 56
r 0.26695 2 3 cbr 210 ------- 2 1.0 3.1 39 59
- 0.267497 2 3 cbr 210 ------- 2 1.0 3.1 40 62
r 0.26847 2 1 ack 40 ------- 1 3.0 0.0 7 65
+ 0.26847 1 0 ack 40 ------- 1 3.0 0.0 7 65
- 0.26847 1 0 ack 40 ------- 1 3.0 0.0 7 65
r 0.268617 1 2 tcp 1040 ------- 1 0.0 3.0 10 53
+ 0.268617 2 3 tcp 1040 ------- 1 0.0 3.0 10 53
- 0.268617 2 3 tcp 1040 ------- 1 0.0 3.0 10 53
+ 0.26875 1 2 cbr 210 ------- 2 1.0 3.1 45 69
r 0.269737 1 2 cbr 210 ------- 2 1.0 3.1 41 63
+ 0.269737 2 3 cbr 210 ------- 2 1.0 3.1 41 63
r 0.269923 3 2 ack 40 ------- 1 3.0 0.0 8 67
+ 0.269923 2 1 ack 40 ------- 1 3.0 0.0 8 67
- 0.269923 2 1 ack 40 ------- 1 3.0 0.0 8 67
r 0.27023 0 1 tcp 1040 ------- 1 0.0 3.0 13 60
+ 0.27023 1 2 tcp 1040 ------- 1 0.0 3.0 13 60
d 0.27023 1 2 tcp 1040 ------- 1 0.0 3.0 13 60
r 0.270857 1 2 cbr 210 ------- 2 1.0 3.1 42 64
+ 0.270857 2 3 cbr 210 ------- 2 1.0 3.1 42 64
- 0.271403 1 2 cbr 210 ------- 2 1.0 3.1 43 66
r 0.272497 2 3 tcp 1040 ------- 1 0.0 3.0 9 52
+ 0.272497 3 2 ack 40 ------- 1 3.0 0.0 9 70
- 0.272497 3 2 ack 40 ------- 1 3.0 0.0 9 70
+ 0.2725 1 2 cbr 210 ------- 2 1.0 3.1 46 71
- 0.272523 1 2 tcp 1040 ------- 1 0.0 3.0 12 57
r 0.273617 2 3 cbr 210 ------- 2 1.0 3.1 40 62
r 0.273683 1 0 ack 40 ------- 1 3.0 0.0 7 65
+ 0.273683 0 1 tcp 1040 ------- 1 0.0 3.0 15 72
- 0.273683 0 1 tcp 1040 ------- 1 0.0 3.0 15 72
+ 0.273683 0 1 tcp 1040 ------- 1 0.0 3.0 16 73
- 0.274163 2 3 cbr 210 ------- 2 1.0 3.1 41 63
r 0.275137 2 1 ack 40 ------- 1 3.0 0.0 8 67
+ 0.275137 1 0 ack 40 ------- 1 3.0 0.0 8 67
- 0.275137 1 0 ack 40 ------- 1 3.0 0.0 8 67
- 0.275283 2 3 cbr 210 ------- 2 1.0 3.1 42 64
r 0.275777 0 1 tcp 1040 ------- 1 0.0 3.0 14 61
+ 0.275777 1 2 tcp 1040 ------- 1 0.0 3.0 14 61
+ 0.27625 1 2 cbr 210 ------- 2 1.0 3.1 47 74
d 0.27625 1 2 cbr 210 ------- 2 1.0 3.1 47 74
r 0.276403 1 2 tcp 1040 ------- 1 0.0 3.0 11 56
+ 0.276403 2 3 tcp 1040 ------- 1 0.0 3.0 11 56
- 0.276403 2 3 tcp 1040 ------- 1 0.0 3.0 11 56
r 0.277523 1 2 cbr 210 ------- 2 1.0 3.1 43 66
+ 0.277523 2 3 cbr 210 ------- 2 1.0 3.1 43 66
r 0.27771 3 2 ack 40 ------- 1 3.0 0.0 9 70
+ 0.27771 2 1 ack 40 ------- 1 3.0 0.0 9 70
- 0.27771 2 1 ack 40 ------- 1 3.0 0.0 9 70
- 0.27807 1 2 cbr 210 ------- 2 1.0 3.1 44 68
r 0.279163 2 3 tcp 1040 ------- 1 0.0 3.0 10 53
+ 0.279163 3 2 ack 40 ------- 1 3.0 0.0 10 75
- 0.279163 3 2 ack 40 ------- 1 3.0 0.0 10 75
- 0.27919 1 2 cbr 210 ------- 2 1.0 3.1 45 69
- 0.27923 0 1 tcp 1040 ------- 1 0.0 3.0 16 73
+ 0.28 1 2 cbr 210 ------- 2 1.0 3.1 48 76
r 0.280283 2 3 cbr 210 ------- 2 1.0 3.1 41 63
- 0.28031 1 2 cbr 210 ------- 2 1.0 3.1 46 71
r 0.28035 1 0 ack 40 ------- 1 3.0 0.0 8 67
+ 0.28035 0 1 tcp 1040 ------- 1 0.0 3.0 17 77
+ 0.28035 0 1 tcp 1040 ------- 1 0.0 3.0 18 78
r 0.281403 2 3 cbr 210 ------- 2 1.0 3.1 42 64
- 0.28143 1 2 tcp 1040 ------- 1 0.0 3.0 14 61
- 0.28195 2 3 cbr 210 ------- 2 1.0 3.1 43 66
r 0.282923 2 1 ack 40 ------- 1 3.0 0.0 9 70
+ 0.282923 1 0 ack 40 ------- 1 3.0 0.0 9 70
- 0.282923 1 0 ack 40 ------- 1 3.0 0.0 9 70
r 0.28307 1 2 tcp 1040 ------- 1 0.0 3.0 12 57
+ 0.28307 2 3 tcp 1040 ------- 1 0.0 3.0 12 57
- 0.28307 2 3 tcp 1040 ------- 1 0.0 3.0 12 57
+ 0.28375 1 2 cbr 210 ------- 2 1.0 3.1 49 79
r 0.28419 1 2 cbr 210 ------- 2 1.0 3.1 44 68
+ 0.28419 2 3 cbr 210 ------- 2 1.0 3.1 44 68
r 0.28423 0 1 tcp 1040 ------- 1 0.0 3.0 15 72
+ 0.28423 1 2 tcp 1040 ------- 1 0.0 3.0 15 72
r 0.284377 3 2 ack 40 ------- 1 3.0 0.0 10 75
+ 0.284377 2 1 ack 40 ------- 1 3.0 0.0 10 75
- 0.284377 2 1 ack 40 ------- 1 3.0 0.0 10 75
- 0.284777 0 1 tcp 1040 ------- 1 0.0 3.0 17 77
r 0.28531 1 2 cbr 210 ------- 2 1.0 3.1 45 69
+ 0.28531 2 3 cbr 210 ------- 2 1.0 3.1 45 69
r 0.28643 1 2 cbr 210 ------- 2 1.0 3.1 46 71
+ 0.28643 2 3 cbr 210 ------- 2 1.0 3.1 46 71
r 0.28695 2 3 tcp 1040 ------- 1 0.0 3.0 11 56
+ 0.28695 3 2 ack 40 ------- 1 3.0 0.0 11 80
- 0.28695 3 2 ack 40 ------- 1 3.0 0.0 11 80
- 0.286977 1 2 cbr 210 ------- 2 1.0 3.1 48 76
+ 0.2875 1 2 cbr 210 ------- 2 1.0 3.1 50 81
r 0.28807 2 3 cbr 210 ------- 2 1.0 3.1 43 66
- 0.288097 1 2 cbr 210 ------- 2 1.0 3.1 49 79
r 0.288137 1 0 ack 40 ------- 1 3.0 0.0 9 70
+ 0.288137 0 1 tcp 1040 ------- 1 0.0 3.0 19 82
+ 0.288137 0 1 tcp 1040 ------- 1 0.0 3.0 20 83
- 0.288617 2 3 cbr 210 ------- 2 1.0 3.1 44 68
- 0.289217 1 2 tcp 1040 ------- 1 0.0 3.0 15 72
r 0.28959 2 1 ack 40 ------- 1 3.0 0.0 10 75
+ 0.28959 1 0 ack 40 ------- 1 3.0 0.0 10 75
- 0.28959 1 0 ack 40 ------- 1 3.0 0.0 10 75
- 0.289737 2 3 cbr 210 ------- 2 1.0 3.1 45 69
r 0.289777 0 1 tcp 1040 ------- 1 0.0 3.0 16 73
+ 0.289777 1 2 tcp 1040 ------- 1 0.0 3.0 16 73
- 0.290323 0 1 tcp 1040 ------- 1 0.0 3.0 18 78
- 0.290857 2 3 cbr 210 ------- 2 1.0 3.1 46 71
+ 0.29125 1 2 cbr 210 ------- 2 1.0 3.1 51 84
r 0.291977 1 2 tcp 1040 ------- 1 0.0 3.0 14 61
+ 0.291977 2 3 tcp 1040 ------- 1 0.0 3.0 14 61
- 0.291977 2 3 tcp 1040 ------- 1 0.0 3.0 14 61
r 0.292163 3 2 ack 40 ------- 1 3.0 0.0 11 80
+ 0.292163 2 1 ack 40 ------- 1 3.0 0.0 11 80
- 0.292163 2 1 ack 40 ------- 1 3.0 0.0 11 80
r 0.293097 1 2 cbr 210 ------- 2 1.0 3.1 48 76
+ 0.293097 2 3 cbr 210 ------- 2 1.0 3.1 48 76
r 0.293617 2 3 tcp 1040 ------- 1 0.0 3.0 12 57
+ 0.293617 3 2 ack 40 ------- 1 3.0 0.0 12 85
- 0.293617 3 2 ack 40 ------- 1 3.0 0.0 12 85
r 0.294217 1 2 cbr 210 ------- 2 1.0 3.1 49 79
+ 0.294217 2 3 cbr 210 ------- 2 1.0 3.1 49 79
r 0.294737 2 3 cbr 210 ------- 2 1.0 3.1 44 68
- 0.294763 1 2 cbr 210 ------- 2 1.0 3.1 50 81
r 0.294803 1 0 ack 40 ------- 1 3.0 0.0 10 75
+ 0.294803 0 1 tcp 1040 ------- 1 0.0 3.0 21 86
+ 0.294803 0 1 tcp 1040 ------- 1 0.0 3.0 22 87
+ 0.295 1 2 cbr 210 ------- 2 1.0 3.1 52 88
r 0.295323 0 1 tcp 1040 ------- 1 0.0 3.0 17 77
+ 0.295323 1 2 tcp 1040 ------- 1 0.0 3.0 17 77
r 0.295857 2 3 cbr 210 ------- 2 1.0 3.1 45 69
- 0.29587 0 1 tcp 1040 ------- 1 0.0 3.0 19 82
- 0.295883 1 2 tcp 1040 ------- 1 0.0 3.0 16 73
r 0.296977 2 3 cbr 210 ------- 2 1.0 3.1 46 71
r 0.297377 2 1 ack 40 ------- 1 3.0 0.0 11 80
+ 0.297377 1 0 ack 40 ------- 1 3.0 0.0 11 80
- 0.297377 1 0 ack 40 ------- 1 3.0 0.0 11 80
- 0.297523 2 3 cbr 210 ------- 2 1.0 3.1 48 76
- 0.298643 2 3 cbr 210 ------- 2 1.0 3.1 49 79
+ 0.29875 1 2 cbr 210 ------- 2 1.0 3.1 53 89
r 0.29883 3 2 ack 40 ------- 1 3.0 0.0 12 85
+ 0.29883 2 1 ack 40 ------- 1 3.0 0.0 12 85
- 0.29883 2 1 ack 40 ------- 1 3.0 0.0 12 85
r 0.299763 1 2 tcp 1040 ------- 1 0.0 3.0 15 72
+ 0.299763 2 3 tcp 1040 ------- 1 0.0 3.0 15 72
- 0.299763 2 3 tcp 1040 ------- 1 0.0 3.0 15 72
r 0.30087 0 1 tcp 1040 ------- 1 0.0 3.0 18 78
+ 0.30087 1 2 tcp 1040 ------- 1 0.0 3.0 18 78
d 0.30087 1 2 tcp 1040 ------- 1 0.0 3.0 18 78
r 0.300883 1 2 cbr 210 ------- 2 1.0 3.1 50 81
+ 0.300883 2 3 cbr 210 ------- 2 1.0 3.1 50 81
- 0.301417 0 1 tcp 1040 ------- 1 0.0 3.0 20 83
- 0.30143 1 2 cbr 210 ------- 2 1.0 3.1 51 84
+ 0.3025 1 2 cbr 210 ------- 2 1.0 3.1 54 90
r 0.302523 2 3 tcp 1040 ------- 1 0.0 3.0 14 61
+ 0.302523 3 2 ack 40 ------- 1 3.0 0.0 12 91
- 0.302523 3 2 ack 40 ------- 1 3.0 0.0 12 91
- 0.30255 1 2 cbr 210 ------- 2 1.0 3.1 52 88
r 0.30259 1 0 ack 40 ------- 1 3.0 0.0 11 80
+ 0.30259 0 1 tcp 1040 ------- 1 0.0 3.0 23 92
+ 0.30259 0 1 tcp 1040 ------- 1 0.0 3.0 24 93
r 0.303643 2 3 cbr 210 ------- 2 1.0 3.1 48 76
- 0.30367 1 2 tcp 1040 ------- 1 0.0 3.0 17 77
r 0.304043 2 1 ack 40 ------- 1 3.0 0.0 12 85
+ 0.304043 1 0 ack 40 ------- 1 3.0 0.0 12 85
- 0.304043 1 0 ack 40 ------- 1 3.0 0.0 12 85
r 0.304763 2 3 cbr 210 ------- 2 1.0 3.1 49 79
- 0.30531 2 3 cbr 210 ------- 2 1.0 3.1 50 81
+ 0.30625 1 2 cbr 210 ------- 2 1.0 3.1 55 94
r 0.306417 0 1 tcp 1040 ------- 1 0.0 3.0 19 82
+ 0.306417 1 2 tcp 1040 ------- 1 0.0 3.0 19 82
r 0.30643 1 2 tcp 1040 ------- 1 0.0 3.0 16 73
+ 0.30643 2 3 tcp 1040 ------- 1 0.0 3.0 16 73
- 0.30643 2 3 tcp 1040 ------- 1 0.0 3.0 16 73
- 0.306963 0 1 tcp 1040 ------- 1 0.0 3.0 21 86
r 0.30755 1 2 cbr 210 ------- 2 1.0 3.1 51 84
+ 0.30755 2 3 cbr 210 ------- 2 1.0 3.1 51 84
r 0.307737 3 2 ack 40 ------- 1 3.0 0.0 12 91
+ 0.307737 2 1 ack 40 ------- 1 3.0 0.0 12 91
- 0.307737 2 1 ack 40 ------- 1 3.0 0.0 12 91
r 0.30867 1 2 cbr 210 ------- 2 1.0 3.1 52 88
+ 0.30867 2 3 cbr 210 ------- 2 1.0 3.1 52 88
- 0.309217 1 2 cbr 210 ------- 2 1.0 3.1 53 89
r 0.309257 1 0 ack 40 ------- 1 3.0 0.0 12 85
+ 0.309257 0 1 tcp 1040 ------- 1 0.0 3.0 25 95
+ 0.309257 0 1 tcp 1040 ------- 1 0.0 3.0 26 96
d 0.309257 0 1 tcp 1040 ------- 1 0.0 3.0 26 96
+ 0.31 1 2 cbr 210 ------- 2 1.0 3.1 56 97
r 0.31031 2 3 tcp 1040 ------- 1 0.0 3.0 15 72
+ 0.31031 3 2 ack 40 ------- 1 3.0 0.0 12 98
- 0.31031 3 2 ack 40 ------- 1 3.0 0.0 12 98
- 0.310337 1 2 cbr 210 ------- 2 1.0 3.1 54 90
r 0.31143 2 3 cbr 210 ------- 2 1.0 3.1 50 81
- 0.311457 1 2 cbr 210 ------- 2 1.0 3.1 55 94
r 0.311963 0 1 tcp 1040 ------- 1 0.0 3.0 20 83
+ 0.311963 1 2 tcp 1040 ------- 1 0.0 3.0 20 83
- 0.311977 2 3 cbr 210 ------- 2 1.0 3.1 51 84
- 0.31251 0 1 tcp 1040 ------- 1 0.0 3.0 22 87
- 0.312577 1 2 tcp 1040 ------- 1 0.0 3.0 19 82
r 0.31295 2 1 ack 40 ------- 1 3.0 0.0 12 91
+ 0.31295 1 0 ack 40 ------- 1 3.0 0.0 12 91
- 0.31295 1 0 ack 40 ------- 1 3.0 0.0 12 91
- 0.313097 2 3 cbr 210 ------- 2 1.0 3.1 52 88
+ 0.31375 1 2 cbr 210 ------- 2 1.0 3.1 57 99
r 0.314217 1 2 tcp 1040 ------- 1 0.0 3.0 17 77
+ 0.314217 2 3 tcp 1040 ------- 1 0.0 3.0 17 77
- 0.314217 2 3 tcp 1040 ------- 1 0.0 3.0 17 77
r 0.315337 1 2 cbr 210 ------- 2 1.0 3.1 53 89
+ 0.315337 2 3 cbr 210 ------- 2 1.0 3.1 53 89
r 0.315523 3 2 ack 40 ------- 1 3.0 0.0 12 98
+ 0.315523 2 1 ack 40 ------- 1 3.0 0.0 12 98
- 0.315523 2 1 ack 40 ------- 1 3.0 0.0 12 98
r 0.316457 1 2 cbr 210 ------- 2 1.0 3.1 54 90
+ 0.316457 2 3 cbr 210 ------- 2 1.0 3.1 54 90
r 0.316977 2 3 tcp 1040 ------- 1 0.0 3.0 16 73
+ 0.316977 3 2 ack 40 ------- 1 3.0 0.0 12 100
- 0.316977 3 2 ack 40 ------- 1 3.0 0.0 12 100
+ 0.3175 1 2 cbr 210 ------- 2 1.0 3.1 58 101
r 0.31751 0 1 tcp 1040 ------- 1 0.0 3.0 21 86
+ 0.31751 1 2 tcp 1040 ------- 1 0.0 3.0 21 86
d 0.31751 1 2 tcp 1040 ------- 1 0.0 3.0 21 86
r 0.317577 1 2 cbr 210 ------- 2 1.0 3.1 55 94
+ 0.317577 2 3 cbr 210 ------- 2 1.0 3.1 55 94
- 0.318057 0 1 tcp 1040 ------- 1 0.0 3.0 23 92
r 0.318097 2 3 cbr 210 ------- 2 1.0 3.1 51 84
- 0.318123 1 2 cbr 210 ------- 2 1.0 3.1 56 97
r 0.318163 1 0 ack 40 ------- 1 3.0 0.0 12 91
+ 0.318163 0 1 tcp 1040 ------- 1 0.0 3.0 27 102
r 0.319217 2 3 cbr 210 ------- 2 1.0 3.1 52 88
- 0.319243 1 2 tcp 1040 ------- 1 0.0 3.0 20 83
- 0.319763 2 3 cbr 210 ------- 2 1.0 3.1 53 89
r 0.320737 2 1 ack 40 ------- 1 3.0 0.0 12 98
+ 0.320737 1 0 ack 40 ------- 1 3.0 0.0 12 98