V -t * -v 1.0a5 -a 0
A -t * -n 1 -p 0 -o 0x7fffffff -c 30 -a 1
A -t * -h 1 -m 1073741823 -s 0
c -t * -i 1 -n Blue
c -t * -i 2 -n Red
n -t * -a 0 -s 0 -S UP -v circle -c black -i black
n -t * -a 1 -s 1 -S UP -v circle -c black -i black
n -t * -a 2 -s 2 -S UP -v circle -c black -i black
n -t * -a 3 -s 3 -S UP -v circle -c black -i black
l -t * -s 0 -d 1 -S UP -r 1500000 -D 0.0050000000000000001 -c black
l -t * -s 1 -d 2 -S UP -r 1500000 -D 0.0050000000000000001 -c black
l -t * -s 2 -d 3 -S UP -r 1500000 -D 0.0050000000000000001 -c black
+ -t 0.1 -s 0 -d 1 -p tcp -e 40 -c 1 -i 0 -a 1 -x {0.0 3.0 0 ------- null}
- -t 0.1 -s 0 -d 1 -p tcp -e 40 -c 1 -i 0 -a 1 -x {0.0 3.0 0 ------- null}
h -t 0.1 -s 0 -d 1 -p tcp -e 40 -c 1 -i 0 -a 1 -x {0.0 3.0 -1 ------- null}
+ -t 0.1 -s 1 -d 2 -p cbr -e 210 -c 2 -i 1 -a 2 -x {1.0 3.1 0 ------- null}
- -t 0.1 -s 1 -d 2 -p cbr -e 210 -c 2 -i 1 -a 2 -x {1.0 3.1 0 ------- null}
h -t 0.1 -s 1 -d 2 -p cbr -e 210 -c 2 -i 1 -a 2 -x {1.0 3.1 -1 ------- null}
+ -t 0.10375 -s 1 -d 2 -p cbr -e 210 -c 2 -i 2 -a 2 -x {1.0 3.1 1 ------- null}
- -t 0.10375 -s 1 -d 2 -p cbr -e 210 -c 2 -i 2 -a 2 -x {1.0 3.1 1 ------- null}
h -t 0.10375 -s 1 -d 2 -p cbr -e 210 -c 2 -i 2 -a 2 -x {1.0 3.1 -1 ------- null}
r -t 0.105213333333333 -s 0 -d 1 -p tcp -e 40 -c 1 -i 0 -a 1 -x {0.0 3.0 0 ------- null}
+ -t 0.105213333333333 -s 1 -d 2 -p tcp -e 40 -c 1 -i 0 -a 1 -x {0.0 3.0 0 ------- null}
- -t 0.105213333333333 -s 1 -d 2 -p tcp -e 40 -c 1 -i 0 -a 1 -x {0.0 3.0 0 ------- null}
h -t 0.105213333333333 -s 1 -d 2 -p tcp -e 40 -c 1 -i 0 -a 1 -x {0.0 3.0 -1 ------- null}
r -t 0.10612 -s 1 -d 2 -p cbr -e 210 -c 2 -i 1 -a 2 -x {1.0 3.1 0 ------- null}
+ -t 0.10612 -s 2 -d 3 -p cbr -e 210 -c 2 -i 1 -a 2 -x {1.0 3.1 0 ------- null}
- -t 0.10612 -s 2 -d 3 -p cbr -e 210 -c 2 -i 1 -a 2 -x {1.0 3.1 0 ------- null}
h -t 0.10612 -s 2 -d 3 -p cbr -e 210 -c 2 -i 1 -a 2 -x {1.0 3.1 -1 ------- null}
+ -t 0.1075 -s 1 -d 2 -p cbr -e 210 -c 2 -i 3 -a 2 -x {1.0 3.1 2 ------- null}
- -t 0.1075 -s 1 -d 2 -p cbr -e 210 -c 2 -i 3 -a 2 -x {1.0 3.1 2 ------- null}
h -t 0.1075 -s 1 -d 2 -p cbr -e 210 -c 2 -i 3 -a 2 -x {1.0 3.1 -1 ------- null}
r -t 0.10987 -s 1 -d 2 -p cbr -e 210 -c 2 -i 2 -a 2 -x {1.0 3.1 1 ------- null}
+ -t 0.10987 -s 2 -d 3 -p cbr -e 210 -c 2 -i 2 -a 2 -x {1.0 3.1 1 ------- null}
- -t 0.10987 -s 2 -d 3 -p cbr -e 210 -c 2 -i 2 -a 2 -x {1.0 3.1 1 ------- null}
h -t 0.10987 -s 2 -d 3 -p cbr -e 210 -c 2 -i 2 -a 2 -x {1.0 3.1 -1 ------- null}
r -t 0.110426666666667 -s 1 -d 2 -p tcp -e 40 -c 1 -i 0 -a 1 -x {0.0 3.0 0 ------- null}
+ -t 0.110426666666667 -s 2 -d 3 -p tcp -e 40 -c 1 -i 0 -a 1 -x {0.0 3.0 0 ------- null}
- -t 0.11099 -s 2 -d 3 -p tcp -e 40 -c 1 -i 0 -a 1 -x {0.0 3.0 0 ------- null}
h -t 0.11099 -s 2 -d 3 -p tcp -e 40 -c 1 -i 0 -a 1 -x {0.0 3.0 -1 ------- null}
+ -t 0.11125 -s 1 -d 2 -p cbr -e 210 -c 2 -i 4 -a 2 -x {1.0 3.1 3 ------- null}
- -t 0.11125 -s 1 -d 2 -p cbr -e 210 -c 2 -i 4 -a 2 -x {1.0 3.1 3 ------- null}
h -t 0.11125 -s 1 -d 2 -p cbr -e 210 -c 2 -i 4 -a 2 -x {1.0 3.1 -1 ------- null}
r -t 0.11224 -s 2 -d 3 -p cbr -e 210 -c 2 -i 1 -a 2 -x {1.0 3.1 0 ------- null}
r -t 0.11362 -s 1 -d 2 -p cbr -e 210 -c 2 -i 3 -a 2 -x {1.0 3.1 2 ------- null}
+ -t 0.11362 -s 2 -d 3 -p cbr -e 210 -c 2 -i 3 -a 2 -x {1.0 3.1 2 ------- null}
- -t 0.11362 -s 2 -d 3 -p cbr -e 210 -c 2 -i 3 -a 2 -x {1.0 3.1 2 ------- null}
h -t 0.11362 -s 2 -d 3 -p cbr -e 210 -c 2 -i 3 -a 2 -x {1.0 3.1 -1 ------- null}
+ -t 0.115 -s 1 -d 2 -p cbr -e 210 -c 2 -i 5 -a 2 -x {1.0 3.1 4 ------- null}
- -t 0.115 -s 1 -d 2 -p cbr -e 210 -c 2 -i 5 -a 2 -x {1.0 3.1 4 ------- null}
h -t 0.115 -s 1 -d 2 -p cbr -e 210 -c 2 -i 5 -a 2 -x {1.0 3.1 -1 ------- null}
r -t 0.11599 -s 2 -d 3 -p cbr -e 210 -c 2 -i 2 -a 2 -x {1.0 3.1 1 ------- null}
r -t 0.116203333333333 -s 2 -d 3 -p tcp -e 40 -c 1 -i 0 -a 1 -x {0.0 3.0 0 ------- null}
+ -t 0.116203333333333 -s 3 -d 2 -p ack -e 40 -c 1 -i 6 -a 1 -x {3.0 0.0 0 ------- null}
- -t 0.116203333333333 -s 3 -d 2 -p ack -e 40 -c 1 -i 6 -a 1 -x {3.0 0.0 0 ------- null}
h -t 0.116203333333333 -s 3 -d 2 -p ack -e 40 -c 1 -i 6 -a 1 -x {3.0 0.0 -1 ------- null}
r -t 0.11737 -s 1 -d 2 -p cbr -e 210 -c 2 -i 4 -a 2 -x {1.0 3.1 3 ------- null}
+ -t 0.11737 -s 2 -d 3 -p cbr -e 210 -c 2 -i 4 -a 2 -x {1.0 3.1 3 ------- null}
- -t 0.11737 -s 2 -d 3 -p cbr -e 210 -c 2 -i 4 -a 2 -x {1.0 3.1 3 ------- null}
h -t 0.11737 -s 2 -d 3 -p cbr -e 210 -c 2 -i 4 -a 2 -x {1.0 3.1 -1 ------- null}
+ -t 0.11875 -s 1 -d 2 -p cbr -e 210 -c 2 -i 7 -a 2 -x {1.0 3.1 5 ------- null}
- -t 0.11875 -s 1 -d 2 -p cbr -e 210 -c 2 -i 7 -a 2 -x {1.0 3.1 5 ------- null}
h -t 0.11875 -s 1 -d 2 -p cbr -e 210 -c 2 -i 7 -a 2 -x {1.0 3.1 -1 ------- null}
r -t 0.11974 -s 2 -d 3 -p cbr -e 210 -c 2 -i 3 -a 2 -x {1.0 3.1 2 ------- null}
r -t 0.12112 -s 1 -d 2 -p cbr -e 210 -c 2 -i 5 -a 2 -x {1.0 3.1 4 ------- null}
+ -t 0.12112 -s 2 -d 3 -p cbr -e 210 -c 2 -i 5 -a 2 -x {1.0 3.1 4 ------- null}
- -t 0.12112 -s 2 -d 3 -p cbr -e 210 -c 2 -i 5 -a 2 -x {1.0 3.1 4 ------- null}
h -t 0.12112 -s 2 -d 3 -p cbr -e 210 -c 2 -i 5 -a 2 -x {1.0 3.1 -1 ------- null}
r -t 0.121416666666667 -s 3 -d 2 -p ack -e 40 -c 1 -i 6 -a 1 -x {3.0 0.0 0 ------- null}
+ -t 0.121416666666667 -s 2 -d 1 -p ack -e 40 -c 1 -i 6 -a 1 -x {3.0 0.0 0 ------- null}
- -t 0.121416666666667 -s 2 -d 1 -p ack -e 40 -c 1 -i 6 -a 1 -x {3.0 0.0 0 ------- null}
h -t 0.121416666666667 -s 2 -d 1 -p ack -e 40 -c 1 -i 6 -a 1 -x {3.0 0.0 -1 ------- null}
+ -t 0.1225 -s 1 -d 2 -p cbr -e 210 -c 2 -i 8 -a 2 -x {1.0 3.1 6 ------- null}
- -t 0.1225 -s 1 -d 2 -p cbr -e 210 -c 2 -i 8 -a 2 -x {1.0 3.1 6 ------- null}
h -t 0.1225 -s 1 -d 2 -p cbr -e 210 -c 2 -i 8 -a 2 -x {1.0 3.1 -1 ------- null}
r -t 0.12349 -s 2 -d 3 -p cbr -e 210 -c 2 -i 4 -a 2 -x {1.0 3.1 3 ------- null}
r -t 0.12487 -s 1 -d 2 -p cbr -e 210 -c 2 -i 7 -a 2 -x {1.0 3.1 5 ------- null}
+ -t 0.12487 -s 2 -d 3 -p cbr -e 210 -c 2 -i 7 -a 2 -x {1.0 3.1 5 ------- null}
- -t 0.12487 -s 2 -d 3 -p cbr -e 210 -c 2 -i 7 -a 2 -x {1.0 3.1 5 ------- null}
h -t 0.12487 -s 2 -d 3 -p cbr -e 210 -c 2 -i 7 -a 2 -x {1.0 3.1 -1 ------- null}
+ -t 0.12625 -s 1 -d 2 -p cbr -e 210 -c 2 -i 9 -a 2 -x {1.0 3.1 7 ------- null}
- -t 0.12625 -s 1 -d 2 -p cbr -e 210 -c 2 -i 9 -a 2 -x {1.0 3.1 7 ------- null}
h -t 0.12625 -s 1 -d 2 -p cbr -e 210 -c 2 -i 9 -a 2 -x {1.0 3.1 -1 ------- null}
r -t 0.12663 -s 2 -d 1 -p ack -e 40 -c 1 -i 6 -a 1 -x {3.0 0.0 0 ------- null}
+ -t 0.12663 -s 1 -d 0 -p ack -e 40 -c 1 -i 6 -a 1 -x {3.0 0.0 0 ------- null}
- -t 0.12663 -s 1 -d 0 -p ack -e 40 -c 1 -i 6 -a 1 -x {3.0 0.0 0 ------- null}
h -t 0.12663 -s 1 -d 0 -p ack -e 40 -c 1 -i 6 -a 1 -x {3.0 0.0 -1 ------- null}
r -t 0.12724 -s 2 -d 3 -p cbr -e 210 -c 2 -i 5 -a 2 -x {1.0 3.1 4 ------- null}
r -t 0.12862 -s 1 -d 2 -p cbr -e 210 -c 2 -i 8 -a 2 -x {1.0 3.1 6 ------- null}
+ -t 0.12862 -s 2 -d 3 -p cbr -e 210 -c 2 -i 8 -a 2 -x {1.0 3.1 6 ------- null}
- -t 0.12862 -s 2 -d 3 -p cbr -e 210 -c 2 -i 8 -a 2 -x {1.0 3.1 6 ------- null}
h -t 0.12862 -s 2 -d 3 -p cbr -e 210 -c 2 -i 8 -a 2 -x {1.0 3.1 -1 ------- null}
+ -t 0.13 -s 1 -d 2 -p cbr -e 210 -c 2 -i 10 -a 2 -x {1.0 3.1 8 ------- null}
- -t 0.13 -s 1 -d 2 -p cbr -e 210 -c 2 -i 10 -a 2 -x {1.0 3.1 8 ------- null}
h -t 0.13 -s 1 -d 2 -p cbr -e 210 -c 2 -i 10 -a 2 -x {1.0 3.1 -1 ------- null}
r -t 0.13099 -s 2 -d 3 -p cbr -e 210 -c 2 -i 7 -a 2 -x {1.0 3.1 5 ------- null}
r -t 0.131843333333333 -s 1 -d 0 -p ack -e 40 -c 1 -i 6 -a 1 -x {3.0 0.0 0 ------- null}
+ -t 0.131843333333333 -s 0 -d 1 -p tcp -e 1040 -c 1 -i 11 -a 1 -x {0.0 3.0 1 ------- null}
- -t 0.131843333333333 -s 0 -d 1 -p tcp -e 1040 -c 1 -i 11 -a 1 -x {0.0 3.0 1 ------- null}
h -t 0.131843333333333 -s 0 -d 1 -p tcp -e 1040 -c 1 -i 11 -a 1 -x {0.0 3.0 -1 ------- null}
+ -t 0.131843333333333 -s 0 -d 1 -p tcp -e 1040 -c 1 -i 12 -a 1 -x {0.0 3.0 2 ------- null}
r -t 0.13237 -s 1 -d 2 -p cbr -e 210 -c 2 -i 9 -a 2 -x {1.0 3.1 7 ------- null}
+ -t 0.13237 -s 2 -d 3 -p cbr -e 210 -c 2 -i 9 -a 2 -x {1.0 3.1 7 ------- null}
- -t 0.13237 -s 2 -d 3 -p cbr -e 210 -c 2 -i 9 -a 2 -x {1.0 3.1 7 ------- null}
h -t 0.13237 -s 2 -d 3 -p cbr -e 210 -c 2 -i 9 -a 2 -x {1.0 3.1 -1 ------- null}
+ -t 0.13375 -s 1 -d 2 -p cbr -e 210 -c 2 -i 13 -a 2 -x {1.0 3.1 9 ------- null}
- -t 0.13375 -s 1 -d 2 -p cbr -e 210 -c 2 -i 13 -a 2 -x {1.0 3.1 9 ------- null}
h -t 0.13375 -s 1 -d 2 -p cbr -e 210 -c 2 -i 13 -a 2 -x {1.0 3.1 -1 ------- null}
r -t 0.13474 -s 2 -d 3 -p cbr -e 210 -c 2 -i 8 -a 2 -x {1.0 3.1 6 ------- null}
r -t 0.13612 -s 1 -d 2 -p cbr -e 210 -c 2 -i 10 -a 2 -x {1.0 3.1 8 ------- null}
+ -t 0.13612 -s 2 -d 3 -p cbr -e 210 -c 2 -i 10 -a 2 -x {1.0 3.1 8 ------- null}
- -t 0.13612 -s 2 -d 3 -p cbr -e 210 -c 2 -i 10 -a 2 -x {1.0 3.1 8 ------- null}
h -t 0.13612 -s 2 -d 3 -p cbr -e 210 -c 2 -i 10 -a 2 -x {1.0 3.1 -1 ------- null}
- -t 0.13739 -s 0 -d 1 -p tcp -e 1040 -c 1 -i 12 -a 1 -x {0.0 3.0 2 ------- null}
h -t 0.13739 -s 0 -d 1 -p tcp -e 1040 -c 1 -i 12 -a 1 -x {0.0 3.0 -1 ------- null}
+ -t 0.1375 -s 1 -d 2 -p cbr -e 210 -c 2 -i 14 -a 2 -x {1.0 3.1 10 ------- null}
- -t 0.1375 -s 1 -d 2 -p cbr -e 210 -c 2 -i 14 -a 2 -x {1.0 3.1 10 ------- null}
h -t 0.1375 -s 1 -d 2 -p cbr -e 210 -c 2 -i 14 -a 2 -x {1.0 3.1 -1 ------- null}
r -t 0.13849 -s 2 -d 3 -p cbr -e 210 -c 2 -i 9 -a 2 -x {1.0 3.1 7 ------- null}
r -t 0.13987 -s 1 -d 2 -p cbr -e 210 -c 2 -i 13 -a 2 -x {1.0 3.1 9 ------- null}
+ -t 0.13987 -s 2 -d 3 -p cbr -e 210 -c 2 -i 13 -a 2 -x {1.0 3.1 9 ------- null}
- -t 0.13987 -s 2 -d 3 -p cbr -e 210 -c 2 -i 13 -a 2 -x {1.0 3.1 9 ------- null}
h -t 0.13987 -s 2 -d 3 -p cbr -e 210 -c 2 -i 13 -a 2 -x {1.0 3.1 -1 ------- null}
+ -t 0.14125 -s 1 -d 2 -p cbr -e 210 -c 2 -i 15 -a 2 -x {1.0 3.1 11 ------- null}
- -t 0.14125 -s 1 -d 2 -p cbr -e 210 -c 2 -i 15 -a 2 -x {1.0 3.1 11 ------- null}
h -t 0.14125 -s 1 -d 2 -p cbr -e 210 -c 2 -i 15 -a 2 -x {1.0 3.1 -1 ------- null}
r -t 0.14224 -s 2 -d 3 -p cbr -e 210 -c 2 -i 10 -a 2 -x {1.0 3.1 8 ------- null}
r -t 0.14239 -s 0 -d 1 -p tcp -e 1040 -c 1 -i 11 -a 1 -x {0.0 3.0 1 ------- null}
+ -t 0.14239 -s 1 -d 2 -p tcp -e 1040 -c 1 -i 11 -a 1 -x {0.0 3.0 1 ------- null}
- -t 0.14239 -s 1 -d 2 -p tcp -e 1040 -c 1 -i 11 -a 1 -x {0.0 3.0 1 ------- null}
h -t 0.14239 -s 1 -d 2 -p tcp -e 1040 -c 1 -i 11 -a 1 -x {0.0 3.0 -1 ------- null}
r -t 0.14362 -s 1 -d 2 -p cbr -e 210 -c 2 -i 14 -a 2 -x {1.0 3.1 10 ------- null}
+ -t 0.14362 -s 2 -d 3 -p cbr -e 210 -c 2 -i 14 -a 2 -x {1.0 3.1 10 ------- null}
- -t 0.14362 -s 2 -d 3 -p cbr -e 210 -c 2 -i 14 -a 2 -x {1.0 3.1 10 ------- null}
h -t 0.14362 -s 2 -d 3 -p cbr -e 210 -c 2 -i 14 -a 2 -x {1.0 3.1 -1 ------- null}
+ -t 0.145 -s 1 -d 2 -p cbr -e 210 -c 2 -i 16 -a 2 -x {1.0 3.1 12 ------- null}
r -t 0.14599 -s 2 -d 3 -p cbr -e 210 -c 2 -i 13 -a 2 -x {1.0 3.1 9 ------- null}
r -t 0.14737 -s 1 -d 2 -p cbr -e 210 -c 2 -i 15 -a 2 -x {1.0 3.1 11 ------- null}
+ -t 0.14737 -s 2 -d 3 -p cbr -e 210 -c 2 -i 15 -a 2 -x {1.0 3.1 11 ------- null}
- -t 0.14737 -s 2 -d 3 -p cbr -e 210 -c 2 -i 15 -a 2 -x {1.0 3.1 11 ------- null}
h -t 0.14737 -s 2 -d 3 -p cbr -e 210 -c 2 -i 15 -a 2 -x {1.0 3.1 -1 ------- null}
r -t 0.147936666666667 -s 0 -d 1 -p tcp -e 1040 -c 1 -i 12 -a 1 -x {0.0 3.0 2 ------- null}
+ -t 0.147936666666667 -s 1 -d 2 -p tcp -e 1040 -c 1 -i 12 -a 1 -x {0.0 3.0 2 ------- null}
- -t 0.147936666666667 -s 1 -d 2 -p cbr -e 210 -c 2 -i 16 -a 2 -x {1.0 3.1 12 ------- null}
h -t 0.147936666666667 -s 1 -d 2 -p cbr -e 210 -c 2 -i 16 -a 2 -x {1.0 3.1 -1 ------- null}
+ -t 0.14875 -s 1 -d 2 -p cbr -e 210 -c 2 -i 17 -a 2 -x {1.0 3.1 13 ------- null}
- -t 0.149056666666667 -s 1 -d 2 -p tcp -e 1040 -c 1 -i 12 -a 1 -x {0.0 3.0 2 ------- null}
h -t 0.149056666666667 -s 1 -d 2 -p tcp -e 1040 -c 1 -i 12 -a 1 -x {0.0 3.0 -1 ------- null}
r -t 0.14974 -s 2 -d 3 -p cbr -e 210 -c 2 -i 14 -a 2 -x {1.0 3.1 10 ------- null}
+ -t 0.1525 -s 1 -d 2 -p cbr -e 210 -c 2 -i 18 -a 2 -x {1.0 3.1 14 ------- null}
r -t 0.152936666666667 -s 1 -d 2 -p tcp -e 1040 -c 1 -i 11 -a 1 -x {0.0 3.0 1 ------- null}
+ -t 0.152936666666667 -s 2 -d 3 -p tcp -e 1040 -c 1 -i 11 -a 1 -x {0.0 3.0 1 ------- null}
- -t 0.152936666666667 -s 2 -d 3 -p tcp -e 1040 -c 1 -i 11 -a 1 -x {0.0 3.0 1 ------- null}
h -t 0.152936666666667 -s 2 -d 3 -p tcp -e 1040 -c 1 -i 11 -a 1 -x {0.0 3.0 -1 ------- null}
r -t 0.15349 -s 2 -d 3 -p cbr -e 210 -c 2 -i 15 -a 2 -x {1.0 3.1 11 ------- null}
r -t 0.154056666666667 -s 1 -d 2 -p cbr -e 210 -c 2 -i 16 -a 2 -x {1.0 3.1 12 ------- null}
+ -t 0.154056666666667 -s 2 -d 3 -p cbr -e 210 -c 2 -i 16 -a 2 -x {1.0 3.1 12 ------- null}
- -t 0.154603333333333 -s 1 -d 2 -p cbr -e 210 -c 2 -i 17 -a 2 -x {1.0 3.1 13 ------- null}
h -t 0.154603333333333 -s 1 -d 2 -p cbr -e 210 -c 2 -i 17 -a 2 -x {1.0 3.1 -1 ------- null}
- -t 0.155723333333333 -s 1 -d 2 -p cbr -e 210 -c 2 -i 18 -a 2 -x {1.0 3.1 14 ------- null}
h -t 0.155723333333333 -s 1 -d 2 -p cbr -e 210 -c 2 -i 18 -a 2 -x {1.0 3.1 -1 ------- null}
+ -t 0.15625 -s 1 -d 2 -p cbr -e 210 -c 2 -i 19 -a 2 -x {1.0 3.1 15 ------- null}
- -t 0.156843333333333 -s 1 -d 2 -p cbr -e 210 -c 2 -i 19 -a 2 -x {1.0 3.1 15 ------- null}
h -t 0.156843333333333 -s 1 -d 2 -p cbr -e 210 -c 2 -i 19 -a 2 -x {1.0 3.1 -1 ------- null}
- -t 0.158483333333333 -s 2 -d 3 -p cbr -e 210 -c 2 -i 16 -a 2 -x {1.0 3.1 12 ------- null}
h -t 0.158483333333333 -s 2 -d 3 -p cbr -e 210 -c 2 -i 16 -a 2 -x {1.0 3.1 -1 ------- null}
r -t 0.159603333333333 -s 1 -d 2 -p tcp -e 1040 -c 1 -i 12 -a 1 -x {0.0 3.0 2 ------- null}
+ -t 0.159603333333333 -s 2 -d 3 -p tcp -e 1040 -c 1 -i 12 -a 1 -x {0.0 3.0 2 ------- null}
- -t 0.159603333333333 -s 2 -d 3 -p tcp -e 1040 -c 1 -i 12 -a 1 -x {0.0 3.0 2 ------- null}
h -t 0.159603333333333 -s 2 -d 3 -p tcp -e 1040 -c 1 -i 12 -a 1 -x {0.0 3.0 -1 ------- null}
+ -t 0.16 -s 1 -d 2 -p cbr -e 210 -c 2 -i 20 -a 2 -x {1.0 3.1 16 ------- null}
- -t 0.16 -s 1 -d 2 -p cbr -e 210 -c 2 -i 20 -a 2 -x {1.0 3.1 16 ------- null}
h -t 0.16 -s 1 -d 2 -p cbr -e 210 -c 2 -i 20 -a 2 -x {1.0 3.1 -1 ------- null}
r -t 0.160723333333333 -s 1 -d 2 -p cbr -e 210 -c 2 -i 17 -a 2 -x {1.0 3.1 13 ------- null}
+ -t 0.160723333333333 -s 2 -d 3 -p cbr -e 210 -c 2 -i 17 -a 2 -x {1.0 3.1 13 ------- null}
r -t 0.161843333333333 -s 1 -d 2 -p cbr -e 210 -c 2 -i 18 -a 2 -x {1.0 3.1 14 ------- null}
+ -t 0.161843333333333 -s 2 -d 3 -p cbr -e 210 -c 2 -i 18 -a 2 -x {1.0 3.1 14 ------- null}
r -t 0.162963333333333 -s 1 -d 2 -p cbr -e 210 -c 2 -i 19 -a 2 -x {1.0 3.1 15 ------- null}
+ -t 0.162963333333333 -s 2 -d 3 -p cbr -e 210 -c 2 -i 19 -a 2 -x {1.0 3.1 15 ------- null}
r -t 0.163483333333333 -s 2 -d 3 -p tcp -e 1040 -c 1 -i 11 -a 1 -x {0.0 3.0 1 ------- null}
+ -t 0.163483333333333 -s 3 -d 2 -p ack -e 40 -c 1 -i 21 -a 1 -x {3.0 0.0 1 ------- null}
- -t 0.163483333333333 -s 3 -d 2 -p ack -e 40 -c 1 -i 21 -a 1 -x {3.0 0.0 1 ------- null}
h -t 0.163483333333333 -s 3 -d 2 -p ack -e 40 -c 1 -i 21 -a 1 -x {3.0 0.0 -1 ------- null}
+ -t 0.16375 -s 1 -d 2 -p cbr -e 210 -c 2 -i 22 -a 2 -x {1.0 3.1 17 ------- null}
- -t 0.16375 -s 1 -d 2 -p cbr -e 210 -c 2 -i 22 -a 2 -x {1.0 3.1 17 ------- null}
h -t 0.16375 -s 1 -d 2 -p cbr -e 210 -c 2 -i 22 -a 2 -x {1.0 3.1 -1 ------- null}
r -t 0.164603333333333 -s 2 -d 3 -p cbr -e 210 -c 2 -i 16 -a 2 -x {1.0 3.1 12 ------- null}
- -t 0.16515 -s 2 -d 3 -p cbr -e 210 -c 2 -i 17 -a 2 -x {1.0 3.1 13 ------- null}
h -t 0.16515 -s 2 -d 3 -p cbr -e 210 -c 2 -i 17 -a 2 -x {1.0 3.1 -1 ------- null}
r -t 0.16612 -s 1 -d 2 -p cbr -e 210 -c 2 -i 20 -a 2 -x {1.0 3.1 16 ------- null}
+ -t 0.16612 -s 2 -d 3 -p cbr -e 210 -c 2 -i 20 -a 2 -x {1.0 3.1 16 ------- null}
- -t 0.16627 -s 2 -d 3 -p cbr -e 210 -c 2 -i 18 -a 2 -x {1.0 3.1 14 ------- null}
h -t 0.16627 -s 2 -d 3 -p cbr -e 210 -c 2 -i 18 -a 2 -x {1.0 3.1 -1 ------- null}
- -t 0.16739 -s 2 -d 3 -p cbr -e 210 -c 2 -i 19 -a 2 -x {1.0 3.1 15 ------- null}
h -t 0.16739 -s 2 -d 3 -p cbr -e 210 -c 2 -i 19 -a 2 -x {1.0 3.1 -1 ------- null}
+ -t 0.1675 -s 1 -d 2 -p cbr -e 210 -c 2 -i 23 -a 2 -x {1.0 3.1 18 ------- null}
- -t 0.1675 -s 1 -d 2 -p cbr -e 210 -c 2 -i 23 -a 2 -x {1.0 3.1 18 ------- null}
h -t 0.1675 -s 1 -d 2 -p cbr -e 210 -c 2 -i 23 -a 2 -x {1.0 3.1 -1 ------- null}
- -t 0.16851 -s 2 -d 3 -p cbr -e 210 -c 2 -i 20 -a 2 -x {1.0 3.1 16 ------- null}
h -t 0.16851 -s 2 -d 3 -p cbr -e 210 -c 2 -i 20 -a 2 -x {1.0 3.1 -1 ------- null}
r -t 0.168696666666667 -s 3 -d 2 -p ack -e 40 -c 1 -i 21 -a 1 -x {3.0 0.0 1 ------- null}
+ -t 0.168696666666667 -s 2 -d 1 -p ack -e 40 -c 1 -i 21 -a 1 -x {3.0 0.0 1 ------- null}
- -t 0.168696666666667 -s 2 -d 1 -p ack -e 40 -c 1 -i 21 -a 1 -x {3.0 0.0 1 ------- null}
h -t 0.168696666666667 -s 2 -d 1 -p ack -e 40 -c 1 -i 21 -a 1 -x {3.0 0.0 -1 ------- null}
r -t 0.16987 -s 1 -d 2 -p cbr -e 210 -c 2 -i 22 -a 2 -x {1.0 3.1 17 ------- null}
+ -t 0.16987 -s 2 -d 3 -p cbr -e 210 -c 2 -i 22 -a 2 -x {1.0 3.1 17 ------- null}
- -t 0.16987 -s 2 -d 3 -p cbr -e 210 -c 2 -i 22 -a 2 -x {1.0 3.1 17 ------- null}
h -t 0.16987 -s 2 -d 3 -p cbr -e 210 -c 2 -i 22 -a 2 -x {1.0 3.1 -1 ------- null}
r -t 0.17015 -s 2 -d 3 -p tcp -e 1040 -c 1 -i 12 -a 1 -x {0.0 3.0 2 ------- null}
+ -t 0.17015 -s 3 -d 2 -p ack -e 40 -c 1 -i 24 -a 1 -x {3.0 0.0 2 ------- null}
- -t 0.17015 -s 3 -d 2 -p ack -e 40 -c 1 -i 24 -a 1 -x {3.0 0.0 2 ------- null}
h -t 0.17015 -s 3 -d 2 -p ack -e 40 -c 1 -i 24 -a 1 -x {3.0 0.0 -1 ------- null}
+ -t 0.17125 -s 1 -d 2 -p cbr -e 210 -c 2 -i 25 -a 2 -x {1.0 3.1 19 ------- null}
- -t 0.17125 -s 1 -d 2 -p cbr -e 210 -c 2 -i 25 -a 2 -x {1.0 3.1 19 ------- null}
h -t 0.17125 -s 1 -d 2 -p cbr -e 210 -c 2 -i 25 -a 2 -x {1.0 3.1 -1 ------- null}
r -t 0.17127 -s 2 -d 3 -p cbr -e 210 -c 2 -i 17 -a 2 -x {1.0 3.1 13 ------- null}
r -t 0.17239 -s 2 -d 3 -p cbr -e 210 -c 2 -i 18 -a 2 -x {1.0 3.1 14 ------- null}
r -t 0.17351 -s 2 -d 3 -p cbr -e 210 -c 2 -i 19 -a 2 -x {1.0 3.1 15 ------- null}
r -t 0.17362 -s 1 -d 2 -p cbr -e 210 -c 2 -i 23 -a 2 -x {1.0 3.1 18 ------- null}
+ -t 0.17362 -s 2 -d 3 -p cbr -e 210 -c 2 -i 23 -a 2 -x {1.0 3.1 18 ------- null}
- -t 0.17362 -s 2 -d 3 -p cbr -e 210 -c 2 -i 23 -a 2 -x {1.0 3.1 18 ------- null}
h -t 0.17362 -s 2 -d 3 -p cbr -e 210 -c 2 -i 23 -a 2 -x {1.0 3.1 -1 ------- null}
r -t 0.17391 -s 2 -d 1 -p ack -e 40 -c 1 -i 21 -a 1 -x {3.0 0.0 1 ------- null}
+ -t 0.17391 -s 1 -d 0 -p ack -e 40 -c 1 -i 21 -a 1 -x {3.0 0.0 1 ------- null}
- -t 0.17391 -s 1 -d 0 -p ack -e 40 -c 1 -i 21 -a 1 -x {3.0 0.0 1 ------- null}
h -t 0.17391 -s 1 -d 0 -p ack -e 40 -c 1 -i 21 -a 1 -x {3.0 0.0 -1 ------- null}
r -t 0.17463 -s 2 -d 3 -p cbr -e 210 -c 2 -i 20 -a 2 -x {1.0 3.1 16 ------- null}
+ -t 0.175 -s 1 -d 2 -p cbr -e 210 -c 2 -i 26 -a 2 -x {1.0 3.1 20 ------- null}
- -t 0.175 -s 1 -d 2 -p cbr -e 210 -c 2 -i 26 -a 2 -x {1.0 3.1 20 ------- null}
h -t 0.175 -s 1 -d 2 -p cbr -e 210 -c 2 -i 26 -a 2 -x {1.0 3.1 -1 ------- null}
r -t 0.175363333333333 -s 3 -d 2 -p ack -e 40 -c 1 -i 24 -a 1 -x {3.0 0.0 2 ------- null}
+ -t 0.175363333333333 -s 2 -d 1 -p ack -e 40 -c 1 -i 24 -a 1 -x {3.0 0.0 2 ------- null}
- -t 0.175363333333333 -s 2 -d 1 -p ack -e 40 -c 1 -i 24 -a 1 -x {3.0 0.0 2 ------- null}
h -t 0.175363333333333 -s 2 -d 1 -p ack -e 40 -c 1 -i 24 -a 1 -x {3.0 0.0 -1 ------- null}
r -t 0.17599 -s 2 -d 3 -p cbr -e 210 -c 2 -i 22 -a 2 -x {1.0 3.1 17 ------- null}
r -t 0.17737 -s 1 -d 2 -p cbr -e 210 -c 2 -i 25 -a 2 -x {1.0 3.1 19 ------- null}
+ -t 0.17737 -s 2 -d 3 -p cbr -e 210 -c 2 -i 25 -a 2 -x {1.0 3.1 19 ------- null}
- -t 0.17737 -s 2 -d 3 -p cbr -e 210 -c 2 -i 25 -a 2 -x {1.0 3.1 19 ------- null}
h -t 0.17737 -s 2 -d 3 -p cbr -e 210 -c 2 -i 25 -a 2 -x {1.0 3.1 -1 ------- null}
+ -t 0.17875 -s 1 -d 2 -p cbr -e 210 -c 2 -i 27 -a 2 -x {1.0 3.1 21 ------- null}
- -t 0.17875 -s 1 -d 2 -p cbr -e 210 -c 2 -i 27 -a 2 -x {1.0 3.1 21 ------- null}
h -t 0.17875 -s 1 -d 2 -p cbr -e 210 -c 2 -i 27 -a 2 -x {1.0 3.1 -1 ------- null}
r -t 0.179123333333333 -s 1 -d 0 -p ack -e 40 -c 1 -i 21 -a 1 -x {3.0 0.0 1 ------- null}
+ -t 0.179123333333333 -s 0 -d 1 -p tcp -e 1040 -c 1 -i 28 -a 1 -x {0.0 3.0 3 ------- null}
- -t 0.179123333333333 -s 0 -d 1 -p tcp -e 1040 -c 1 -i 28 -a 1 -x {0.0 3.0 3 ------- null}
h -t 0.179123333333333 -s 0 -d 1 -p tcp -e 1040 -c 1 -i 28 -a 1 -x {0.0 3.0 -1 ------- null}
+ -t 0.179123333333333 -s 0 -d 1 -p tcp -e 1040 -c 1 -i 29 -a 1 -x {0.0 3.0 4 ------- null}
r -t 0.17974 -s 2 -d 3 -p cbr -e 210 -c 2 -i 23 -a 2 -x {1.0 3.1 18 ------- null}
r -t 0.180576666666667 -s 2 -d 1 -p ack -e 40 -c 1 -i 24 -a 1 -x {3.0 0.0 2 ------- null}
+ -t 0.180576666666667 -s 1 -d 0 -p ack -e 40 -c 1 -i 24 -a 1 -x {3.0 0.0 2 ------- null}
- -t 0.180576666666667 -s 1 -d 0 -p ack -e 40 -c 1 -i 24 -a 1 -x {3.0 0.0 2 ------- null}
h -t 0.180576666666667 -s 1 -d 0 -p ack -e 40 -c 1 -i 24 -a 1 -x {3.0 0.0 -1 ------- null}
r -t 0.18112 -s 1 -d 2 -p cbr -e 210 -c 2 -i 26 -a 2 -x {1.0 3.1 20 ------- null}
+ -t 0.18112 -s 2 -d 3 -p cbr -e 210 -c 2 -i 26 -a 2 -x {1.0 3.1 20 ------- null}
- -t 0.18112 -s 2 -d 3 -p cbr -e 210 -c 2 -i 26 -a 2 -x {1.0 3.1 20 ------- null}
h -t 0.18112 -s 2 -d 3 -p cbr -e 210 -c 2 -i 26 -a 2 -x {1.0 3.1 -1 ------- null}
+ -t 0.1825 -s 1 -d 2 -p cbr -e 210 -c 2 -i 30 -a 2 -x {1.0 3.1 22 ------- null}
- -t 0.1825 -s 1 -d 2 -p cbr -e 210 -c 2 -i 30 -a 2 -x {1.0 3.1 22 ------- null}
h -t 0.1825 -s 1 -d 2 -p cbr -e 210 -c 2 -i 30 -a 2 -x {1.0 3.1 -1 ------- null}
r -t 0.18349 -s 2 -d 3 -p cbr -e 210 -c 2 -i 25 -a 2 -x {1.0 3.1 19 ------- null}
- -t 0.18467 -s 0 -d 1 -p tcp -e 1040 -c 1 -i 29 -a 1 -x {0.0 3.0 4 ------- null}
h -t 0.18467 -s 0 -d 1 -p tcp -e 1040 -c 1 -i 29 -a 1 -x {0.0 3.0 -1 ------- null}
r -t 0.18487 -s 1 -d 2 -p cbr -e 210 -c 2 -i 27 -a 2 -x {1.0 3.1 21 ------- null}
+ -t 0.18487 -s 2 -d 3 -p cbr -e 210 -c 2 -i 27 -a 2 -x {1.0 3.1 21 ------- null}
- -t 0.18487 -s 2 -d 3 -p cbr -e 210 -c 2 -i 27 -a 2 -x {1.0 3.1 21 ------- null}
h -t 0.18487 -s 2 -d 3 -p cbr -e 210 -c 2 -i 27 -a 2 -x {1.0 3.1 -1 ------- null}
r -t 0.18579 -s 1 -d 0 -p ack -e 40 -c 1 -i 24 -a 1 -x {3.0 0.0 2 ------- null}
+ -t 0.18579 -s 0 -d 1 -p tcp -e 1040 -c 1 -i 31 -a 1 -x {0.0 3.0 5 ------- null}
+ -t 0.18579 -s 0 -d 1 -p tcp -e 1040 -c 1 -i 32 -a 1 -x {0.0 3.0 6 ------- null}
+ -t 0.18625 -s 1 -d 2 -p cbr -e 210 -c 2 -i 33 -a 2 -x {1.0 3.1 23 ------- null}
- -t 0.18625 -s 1 -d 2 -p cbr -e 210 -c 2 -i 33 -a 2 -x {1.0 3.1 23 ------- null}
h -t 0.18625 -s 1 -d 2 -p cbr -e 210 -c 2 -i 33 -a 2 -x {1.0 3.1 -1 ------- null}
r -t 0.18724 -s 2 -d 3 -p cbr -e 210 -c 2 -i 26 -a 2 -x {1.0 3.1 20 ------- null}
r -t 0.18862 -s 1 -d 2 -p cbr -e 210 -c 2 -i 30 -a 2 -x {1.0 3.1 22 ------- null}
+ -t 0.18862 -s 2 -d 3 -p cbr -e 210 -c 2 -i 30 -a 2 -x {1.0 3.1 22 ------- null}
- -t 0.18862 -s 2 -d 3 -p cbr -e 210 -c 2 -i 30 -a 2 -x {1.0 3.1 22 ------- null}
h -t 0.18862 -s 2 -d 3 -p cbr -e 210 -c 2 -i 30 -a 2 -x {1.0 3.1 -1 ------- null}
r -t 0.18967 -s 0 -d 1 -p tcp -e 1040 -c 1 -i 28 -a 1 -x {0.0 3.0 3 ------- null}
+ -t 0.18967 -s 1 -d 2 -p tcp -e 1040 -c 1 -i 28 -a 1 -x {0.0 3.0 3 ------- null}
- -t 0.18967 -s 1 -d 2 -p tcp -e 1040 -c 1 -i 28 -a 1 -x {0.0 3.0 3 ------- null}
h -t 0.18967 -s 1 -d 2 -p tcp -e 1040 -c 1 -i 28 -a 1 -x {0.0 3.0 -1 ------- null}
+ -t 0.19 -s 1 -d 2 -p cbr -e 210 -c 2 -i 34 -a 2 -x {1.0 3.1 24 ------- null}
- -t 0.190216666666667 -s 0 -d 1 -p tcp -e 1040 -c 1 -i 31 -a 1 -x {0.0 3.0 5 ------- null}
h -t 0.190216666666667 -s 0 -d 1 -p tcp -e 1040 -c 1 -i 31 -a 1 -x {0.0 3.0 -1 ------- null}
r -t 0.19099 -s 2 -d 3 -p cbr -e 210 -c 2 -i 27 -a 2 -x {1.0 3.1 21 ------- null}
r -t 0.19237 -s 1 -d 2 -p cbr -e 210 -c 2 -i 33 -a 2 -x {1.0 3.1 23 ------- null}
+ -t 0.19237 -s 2 -d 3 -p cbr -e 210 -c 2 -i 33 -a 2 -x {1.0 3.1 23 ------- null}
- -t 0.19237 -s 2 -d 3 -p cbr -e 210 -c 2 -i 33 -a 2 -x {1.0 3.1 23 ------- null}
h -t 0.19237 -s 2 -d 3 -p cbr -e 210 -c 2 -i 33 -a 2 -x {1.0 3.1 -1 ------- null}
+ -t 0.19375 -s 1 -d 2 -p cbr -e 210 -c 2 -i 35 -a 2 -x {1.0 3.1 25 ------- null}
r -t 0.19474 -s 2 -d 3 -p cbr -e 210 -c 2 -i 30 -a 2 -x {1.0 3.1 22 ------- null}
r -t 0.195216666666667 -s 0 -d 1 -p tcp -e 1040 -c 1 -i 29 -a 1 -x {0.0 3.0 4 ------- null}
+ -t 0.195216666666667 -s 1 -d 2 -p tcp -e 1040 -c 1 -i 29 -a 1 -x {0.0 3.0 4 ------- null}
- -t 0.195216666666667 -s 1 -d 2 -p cbr -e 210 -c 2 -i 34 -a 2 -x {1.0 3.1 24 ------- null}
h -t 0.195216666666667 -s 1 -d 2 -p cbr -e 210 -c 2 -i 34 -a 2 -x {1.0 3.1 -1 ------- null}
- -t 0.195763333333333 -s 0 -d 1 -p tcp -e 1040 -c 1 -i 32 -a 1 -x {0.0 3.0 6 ------- null}
h -t 0.195763333333333 -s 0 -d 1 -p tcp -e 1040 -c 1 -i 32 -a 1 -x {0.0 3.0 -1 ------- null}
- -t 0.196336666666667 -s 1 -d 2 -p cbr -e 210 -c 2 -i 35 -a 2 -x {1.0 3.1 25 ------- null}
h -t 0.196336666666667 -s 1 -d 2 -p cbr -e 210 -c 2 -i 35 -a 2 -x {1.0 3.1 -1 ------- null}
- -t 0.197456666666667 -s 1 -d 2 -p tcp -e 1040 -c 1 -i 29 -a 1 -x {0.0 3.0 4 ------- null}
h -t 0.197456666666667 -s 1 -d 2 -p tcp -e 1040 -c 1 -i 29 -a 1 -x {0.0 3.0 -1 ------- null}
+ -t 0.1975 -s 1 -d 2 -p cbr -e 210 -c 2 -i 36 -a 2 -x {1.0 3.1 26 ------- null}
r -t 0.19849 -s 2 -d 3 -p cbr -e 210 -c 2 -i 33 -a 2 -x {1.0 3.1 23 ------- null}
r -t 0.200216666666667 -s 1 -d 2 -p tcp -e 1040 -c 1 -i 28 -a 1 -x {0.0 3.0 3 ------- null}
+ -t 0.200216666666667 -s 2 -d 3 -p tcp -e 1040 -c 1 -i 28 -a 1 -x {0.0 3.0 3 ------- null}
- -t 0.200216666666667 -s 2 -d 3 -p tcp -e 1040 -c 1 -i 28 -a 1 -x {0.0 3.0 3 ------- null}
h -t 0.200216666666667 -s 2 -d 3 -p tcp -e 1040 -c 1 -i 28 -a 1 -x {0.0 3.0 -1 ------- null}
r -t 0.200763333333333 -s 0 -d 1 -p tcp -e 1040 -c 1 -i 31 -a 1 -x {0.0 3.0 5 ------- null}
+ -t 0.200763333333333 -s 1 -d 2 -p tcp -e 1040 -c 1 -i 31 -a 1 -x {0.0 3.0 5 ------- null}
+ -t 0.20125 -s 1 -d 2 -p cbr -e 210 -c 2 -i 37 -a 2 -x {1.0 3.1 27 ------- null}
r -t 0.201336666666667 -s 1 -d 2 -p cbr -e 210 -c 2 -i 34 -a 2 -x {1.0 3.1 24 ------- null}
+ -t 0.201336666666667 -s 2 -d 3 -p cbr -e 210 -c 2 -i 34 -a 2 -x {1.0 3.1 24 ------- null}
r -t 0.202456666666667 -s 1 -d 2 -p cbr -e 210 -c 2 -i 35 -a 2 -x {1.0 3.1 25 ------- null}
+ -t 0.202456666666667 -s 2 -d 3 -p cbr -e 210 -c 2 -i 35 -a 2 -x {1.0 3.1 25 ------- null}
- -t 0.203003333333333 -s 1 -d 2 -p cbr -e 210 -c 2 -i 36 -a 2 -x {1.0 3.1 26 ------- null}
h -t 0.203003333333333 -s 1 -d 2 -p cbr -e 210 -c 2 -i 36 -a 2 -x {1.0 3.1 -1 ------- null}
- -t 0.204123333333333 -s 1 -d 2 -p tcp -e 1040 -c 1 -i 31 -a 1 -x {0.0 3.0 5 ------- null}
h -t 0.204123333333333 -s 1 -d 2 -p tcp -e 1040 -c 1 -i 31 -a 1 -x {0.0 3.0 -1 ------- null}
+ -t 0.205 -s 1 -d 2 -p cbr -e 210 -c 2 -i 38 -a 2 -x {1.0 3.1 28 ------- null}
- -t 0.205763333333333 -s 2 -d 3 -p cbr -e 210 -c 2 -i 34 -a 2 -x {1.0 3.1 24 ------- null}
h -t 0.205763333333333 -s 2 -d 3 -p cbr -e 210 -c 2 -i 34 -a 2 -x {1.0 3.1 -1 ------- null}
r -t 0.20631 -s 0 -d 1 -p tcp -e 1040 -c 1 -i 32 -a 1 -x {0.0 3.0 6 ------- null}
+ -t 0.20631 -s 1 -d 2 -p tcp -e 1040 -c 1 -i 32 -a 1 -x {0.0 3.0 6 ------- null}
- -t 0.206883333333333 -s 2 -d 3 -p cbr -e 210 -c 2 -i 35 -a 2 -x {1.0 3.1 25 ------- null}
h -t 0.206883333333333 -s 2 -d 3 -p cbr -e 210 -c 2 -i 35 -a 2 -x {1.0 3.1 -1 ------- null}
r -t 0.208003333333333 -s 1 -d 2 -p tcp -e 1040 -c 1 -i 29 -a 1 -x {0.0 3.0 4 ------- null}
+ -t 0.208003333333333 -s 2 -d 3 -p tcp -e 1040 -c 1 -i 29 -a 1 -x {0.0 3.0 4 ------- null}
- -t 0.208003333333333 -s 2 -d 3 -p tcp -e 1040 -c 1 -i 29 -a 1 -x {0.0 3.0 4 ------- null}
h -t 0.208003333333333 -s 2 -d 3 -p tcp -e 1040 -c 1 -i 29 -a 1 -x {0.0 3.0 -1 ------- null}
+ -t 0.20875 -s 1 -d 2 -p cbr -e 210 -c 2 -i 39 -a 2 -x {1.0 3.1 29 ------- null}
r -t 0.209123333333333 -s 1 -d 2 -p cbr -e 210 -c 2 -i 36 -a 2 -x {1.0 3.1 26 ------- null}
+ -t 0.209123333333333 -s 2 -d 3 -p cbr -e 210 -c 2 -i 36 -a 2 -x {1.0 3.1 26 ------- null}
- -t 0.20967 -s 1 -d 2 -p cbr -e 210 -c 2 -i 37 -a 2 -x {1.0 3.1 27 ------- null}
h -t 0.20967 -s 1 -d 2 -p cbr -e 210 -c 2 -i 37 -a 2 -x {1.0 3.1 -1 ------- null}
r -t 0.210763333333333 -s 2 -d 3 -p tcp -e 1040 -c 1 -i 28 -a 1 -x {0.0 3.0 3 ------- null}
+ -t 0.210763333333333 -s 3 -d 2 -p ack -e 40 -c 1 -i 40 -a 1 -x {3.0 0.0 3 ------- null}
- -t 0.210763333333333 -s 3 -d 2 -p ack -e 40 -c 1 -i 40 -a 1 -x {3.0 0.0 3 ------- null}
h -t 0.210763333333333 -s 3 -d 2 -p ack -e 40 -c 1 -i 40 -a 1 -x {3.0 0.0 -1 ------- null}
- -t 0.21079 -s 1 -d 2 -p cbr -e 210 -c 2 -i 38 -a 2 -x {1.0 3.1 28 ------- null}
h -t 0.21079 -s 1 -d 2 -p cbr -e 210 -c 2 -i 38 -a 2 -x {1.0 3.1 -1 ------- null}
r -t 0.211883333333333 -s 2 -d 3 -p cbr -e 210 -c 2 -i 34 -a 2 -x {1.0 3.1 24 ------- null}
- -t 0.21191 -s 1 -d 2 -p tcp -e 1040 -c 1 -i 32 -a 1 -x {0.0 3.0 6 ------- null}
h -t 0.21191 -s 1 -d 2 -p tcp -e 1040 -c 1 -i 32 -a 1 -x {0.0 3.0 -1 ------- null}
+ -t 0.2125 -s 1 -d 2 -p cbr -e 210 -c 2 -i 41 -a 2 -x {1.0 3.1 30 ------- null}
r -t 0.213003333333333 -s 2 -d 3 -p cbr -e 210 -c 2 -i 35 -a 2 -x {1.0 3.1 25 ------- null}
- -t 0.21355 -s 2 -d 3 -p cbr -e 210 -c 2 -i 36 -a 2 -x {1.0 3.1 26 ------- null}
h -t 0.21355 -s 2 -d 3 -p cbr -e 210 -c 2 -i 36 -a 2 -x {1.0 3.1 -1 ------- null}
r -t 0.21467 -s 1 -d 2 -p tcp -e 1040 -c 1 -i 31 -a 1 -x {0.0 3.0 5 ------- null}
+ -t 0.21467 -s 2 -d 3 -p tcp -e 1040 -c 1 -i 31 -a 1 -x {0.0 3.0 5 ------- null}
- -t 0.21467 -s 2 -d 3 -p tcp -e 1040 -c 1 -i 31 -a 1 -x {0.0 3.0 5 ------- null}
h -t 0.21467 -s 2 -d 3 -p tcp -e 1040 -c 1 -i 31 -a 1 -x {0.0 3.0 -1 ------- null}
r -t 0.21579 -s 1 -d 2 -p cbr -e 210 -c 2 -i 37 -a 2 -x {1.0 3.1 27 ------- null}
+ -t 0.21579 -s 2 -d 3 -p cbr -e 210 -c 2 -i 37 -a 2 -x {1.0 3.1 27 ------- null}
r -t 0.215976666666667 -s 3 -d 2 -p ack -e 40 -c 1 -i 40 -a 1 -x {3.0 0.0 3 ------- null}
+ -t 0.215976666666667 -s 2 -d 1 -p ack -e 40 -c 1 -i 40 -a 1 -x {3.0 0.0 3 ------- null}
- -t 0.215976666666667 -s 2 -d 1 -p ack -e 40 -c 1 -i 40 -a 1 -x {3.0 0.0 3 ------- null}
h -t 0.215976666666667 -s 2 -d 1 -p ack -e 40 -c 1 -i 40 -a 1 -x {3.0 0.0 -1 ------- null}
+ -t 0.21625 -s 1 -d 2 -p cbr -e 210 -c 2 -i 42 -a 2 -x {1.0 3.1 31 ------- null}
r -t 0.21691 -s 1 -d 2 -p cbr -e 210 -c 2 -i 38 -a 2 -x {1.0 3.1 28 ------- null}
+ -t 0.21691 -s 2 -d 3 -p cbr -e 210 -c 2 -i 38 -a 2 -x {1.0 3.1 28 ------- null}