n -t * -s 0  -x 0 -y 0 -Z 0 -z 40  -v circle -c black
n -t * -s 1  -x 0 -y 0 -Z 0 -z 40  -v circle -c black
V -t * -v 1.0a5 -a 0
W -t * -x 500 -y 500
A -t * -n 1 -p 0 -o 0x7fffffff -c 30 -a 1
A -t * -h 1 -m 1073741823 -s 0
+ -t 0.029290548 -s 1 -d -1 -p message -e 32 -c 2 -a 0 -i 0 -k RTR 
- -t 0.029290548 -s 1 -d -1 -p message -e 32 -c 2 -a 0 -i 0 -k RTR
h -t 0.029290548 -s 1 -d -1 -p message -e 32 -c 2 -a 0 -i 0 -k RTR
+ -t 0.029365548 -s 1 -d -1 -p message -e 90 -c 2 -a 0 -i 0 -k MAC 
- -t 0.029365548 -s 1 -d -1 -p message -e 90 -c 2 -a 0 -i 0 -k MAC
h -t 0.029365548 -s 1 -d -1 -p message -e 90 -c 2 -a 0 -i 0 -k MAC
r -t 0.030085548 -s 0 -d -1 -p message -e 32 -c 2 -a 0 -i 0 -k MAC
r -t 0.030110548 -s 0 -d -1 -p message -e 32 -c 2 -a 0 -i 0 -k RTR
n -t 1.000000 -s 0 -x 0.000000 -y 0.000000 -U 19.989602 -V 0.644826 -T 15.508062
n -t 1.000000 -s 1 -x 0.000000 -y 0.000000 -U 0.644826 -V 19.989602 -T 15.508062
+ -t 1.000000000 -s 0 -d -1 -p tcp -e 40 -c 2 -a 0 -i 1 -k AGT 
- -t 1.000000000 -s 0 -d -1 -p tcp -e 40 -c 2 -a 0 -i 1 -k AGT
h -t 1.000000000 -s 0 -d -1 -p tcp -e 40 -c 2 -a 0 -i 1 -k AGT
+ -t 1.000000000 -s 0 -d 1 -p tcp -e 60 -c 2 -a 0 -i 1 -k RTR 
- -t 1.000000000 -s 0 -d 1 -p tcp -e 60 -c 2 -a 0 -i 1 -k RTR
h -t 1.000000000 -s 0 -d 1 -p tcp -e 60 -c 2 -a 0 -i 1 -k RTR
+ -t 1.000255000 -s 0 -d -1 -p ARP -e 86 -c 2 -a 0 -i 0 -k MAC 
- -t 1.000255000 -s 0 -d -1 -p ARP -e 86 -c 2 -a 0 -i 0 -k MAC
h -t 1.000255000 -s 0 -d -1 -p ARP -e 86 -c 2 -a 0 -i 0 -k MAC
r -t 1.000943000 -s 1 -d -1 -p ARP -e 28 -c 2 -a 0 -i 0 -k MAC
+ -t 1.001358000 -s 1 -d -1 -p RTS -e 44 -c 2 -a 0 -i 0 -k MAC 
- -t 1.001358000 -s 1 -d -1 -p RTS -e 44 -c 2 -a 0 -i 0 -k MAC
h -t 1.001358000 -s 1 -d -1 -p RTS -e 44 -c 2 -a 0 -i 0 -k MAC
r -t 1.001710000 -s 0 -d -1 -p RTS -e 44 -c 2 -a 0 -i 0 -k MAC
+ -t 1.001720000 -s 0 -d -1 -p CTS -e 38 -c 2 -a 0 -i 0 -k MAC 
- -t 1.001720000 -s 0 -d -1 -p CTS -e 38 -c 2 -a 0 -i 0 -k MAC
h -t 1.001720000 -s 0 -d -1 -p CTS -e 38 -c 2 -a 0 -i 0 -k MAC
r -t 1.002024000 -s 1 -d -1 -p CTS -e 38 -c 2 -a 0 -i 0 -k MAC
+ -t 1.002034000 -s 1 -d -1 -p ARP -e 86 -c 2 -a 0 -i 0 -k MAC 
- -t 1.002034000 -s 1 -d -1 -p ARP -e 86 -c 2 -a 0 -i 0 -k MAC
h -t 1.002034000 -s 1 -d -1 -p ARP -e 86 -c 2 -a 0 -i 0 -k MAC
r -t 1.002722000 -s 0 -d -1 -p ARP -e 28 -c 2 -a 0 -i 0 -k MAC
+ -t 1.002732000 -s 0 -d -1 -p ACK -e 38 -c 2 -a 0 -i 0 -k MAC 
- -t 1.002732000 -s 0 -d -1 -p ACK -e 38 -c 2 -a 0 -i 0 -k MAC
h -t 1.002732000 -s 0 -d -1 -p ACK -e 38 -c 2 -a 0 -i 0 -k MAC
r -t 1.003036001 -s 1 -d -1 -p ACK -e 38 -c 2 -a 0 -i 0 -k MAC
+ -t 1.003346000 -s 0 -d -1 -p RTS -e 44 -c 2 -a 0 -i 0 -k MAC 
- -t 1.003346000 -s 0 -d -1 -p RTS -e 44 -c 2 -a 0 -i 0 -k MAC
h -t 1.003346000 -s 0 -d -1 -p RTS -e 44 -c 2 -a 0 -i 0 -k MAC
r -t 1.003698001 -s 1 -d -1 -p RTS -e 44 -c 2 -a 0 -i 0 -k MAC
+ -t 1.003708001 -s 1 -d -1 -p CTS -e 38 -c 2 -a 0 -i 0 -k MAC 
- -t 1.003708001 -s 1 -d -1 -p CTS -e 38 -c 2 -a 0 -i 0 -k MAC
h -t 1.003708001 -s 1 -d -1 -p CTS -e 38 -c 2 -a 0 -i 0 -k MAC
r -t 1.004012001 -s 0 -d -1 -p CTS -e 38 -c 2 -a 0 -i 0 -k MAC
+ -t 1.004022001 -s 0 -d 1 -p tcp -e 118 -c 2 -a 0 -i 1 -k MAC 
- -t 1.004022001 -s 0 -d 1 -p tcp -e 118 -c 2 -a 0 -i 1 -k MAC
h -t 1.004022001 -s 0 -d 1 -p tcp -e 118 -c 2 -a 0 -i 1 -k MAC
r -t 1.004966001 -s 1 -d 1 -p tcp -e 60 -c 2 -a 0 -i 1 -k MAC
+ -t 1.004976001 -s 1 -d -1 -p ACK -e 38 -c 2 -a 0 -i 0 -k MAC 
- -t 1.004976001 -s 1 -d -1 -p ACK -e 38 -c 2 -a 0 -i 0 -k MAC
h -t 1.004976001 -s 1 -d -1 -p ACK -e 38 -c 2 -a 0 -i 0 -k MAC
r -t 1.004991001 -s 1 -d 1 -p tcp -e 60 -c 2 -a 0 -i 1 -k AGT
+ -t 1.004991001 -s 1 -d -1 -p ack -e 40 -c 2 -a 0 -i 2 -k AGT 
- -t 1.004991001 -s 1 -d -1 -p ack -e 40 -c 2 -a 0 -i 2 -k AGT
h -t 1.004991001 -s 1 -d -1 -p ack -e 40 -c 2 -a 0 -i 2 -k AGT
r -t 1.005280002 -s 0 -d -1 -p ACK -e 38 -c 2 -a 0 -i 0 -k MAC
+ -t 1.112189378 -s 0 -d -1 -p message -e 32 -c 2 -a 0 -i 3 -k RTR 
- -t 1.112189378 -s 0 -d -1 -p message -e 32 -c 2 -a 0 -i 3 -k RTR
h -t 1.112189378 -s 0 -d -1 -p message -e 32 -c 2 -a 0 -i 3 -k RTR
+ -t 1.112624378 -s 0 -d -1 -p message -e 90 -c 2 -a 0 -i 3 -k MAC 
- -t 1.112624378 -s 0 -d -1 -p message -e 90 -c 2 -a 0 -i 3 -k MAC
h -t 1.112624378 -s 0 -d -1 -p message -e 90 -c 2 -a 0 -i 3 -k MAC
r -t 1.113344388 -s 1 -d -1 -p message -e 32 -c 2 -a 0 -i 3 -k MAC
r -t 1.113369388 -s 1 -d -1 -p message -e 32 -c 2 -a 0 -i 3 -k RTR
+ -t 1.113369388 -s 1 -d 0 -p ack -e 80 -c 2 -a 0 -i 2 -k RTR 
- -t 1.113369388 -s 1 -d 0 -p ack -e 80 -c 2 -a 0 -i 2 -k RTR
h -t 1.113369388 -s 1 -d 0 -p ack -e 80 -c 2 -a 0 -i 2 -k RTR
+ -t 1.113604388 -s 1 -d -1 -p RTS -e 44 -c 2 -a 0 -i 0 -k MAC 
- -t 1.113604388 -s 1 -d -1 -p RTS -e 44 -c 2 -a 0 -i 0 -k MAC
h -t 1.113604388 -s 1 -d -1 -p RTS -e 44 -c 2 -a 0 -i 0 -k MAC
r -t 1.113956398 -s 0 -d -1 -p RTS -e 44 -c 2 -a 0 -i 0 -k MAC
+ -t 1.113966398 -s 0 -d -1 -p CTS -e 38 -c 2 -a 0 -i 0 -k MAC 
- -t 1.113966398 -s 0 -d -1 -p CTS -e 38 -c 2 -a 0 -i 0 -k MAC
h -t 1.113966398 -s 0 -d -1 -p CTS -e 38 -c 2 -a 0 -i 0 -k MAC
r -t 1.114270409 -s 1 -d -1 -p CTS -e 38 -c 2 -a 0 -i 0 -k MAC
+ -t 1.114280409 -s 1 -d 0 -p ack -e 138 -c 2 -a 0 -i 2 -k MAC 
- -t 1.114280409 -s 1 -d 0 -p ack -e 138 -c 2 -a 0 -i 2 -k MAC
h -t 1.114280409 -s 1 -d 0 -p ack -e 138 -c 2 -a 0 -i 2 -k MAC
r -t 1.115384419 -s 0 -d 0 -p ack -e 80 -c 2 -a 0 -i 2 -k MAC
+ -t 1.115394419 -s 0 -d -1 -p ACK -e 38 -c 2 -a 0 -i 0 -k MAC 
- -t 1.115394419 -s 0 -d -1 -p ACK -e 38 -c 2 -a 0 -i 0 -k MAC
h -t 1.115394419 -s 0 -d -1 -p ACK -e 38 -c 2 -a 0 -i 0 -k MAC
r -t 1.115409419 -s 0 -d 0 -p ack -e 80 -c 2 -a 0 -i 2 -k AGT
+ -t 1.115409419 -s 0 -d -1 -p tcp -e 1040 -c 2 -a 0 -i 4 -k AGT 
- -t 1.115409419 -s 0 -d -1 -p tcp -e 1040 -c 2 -a 0 -i 4 -k AGT
h -t 1.115409419 -s 0 -d -1 -p tcp -e 1040 -c 2 -a 0 -i 4 -k AGT
+ -t 1.115409419 -s 0 -d 1 -p tcp -e 1060 -c 2 -a 0 -i 4 -k RTR 
- -t 1.115409419 -s 0 -d 1 -p tcp -e 1060 -c 2 -a 0 -i 4 -k RTR
h -t 1.115409419 -s 0 -d 1 -p tcp -e 1060 -c 2 -a 0 -i 4 -k RTR
+ -t 1.115409419 -s 0 -d -1 -p tcp -e 1040 -c 2 -a 0 -i 5 -k AGT 
- -t 1.115409419 -s 0 -d -1 -p tcp -e 1040 -c 2 -a 0 -i 5 -k AGT
h -t 1.115409419 -s 0 -d -1 -p tcp -e 1040 -c 2 -a 0 -i 5 -k AGT
+ -t 1.115409419 -s 0 -d 1 -p tcp -e 1060 -c 2 -a 0 -i 5 -k RTR 
- -t 1.115409419 -s 0 -d 1 -p tcp -e 1060 -c 2 -a 0 -i 5 -k RTR
h -t 1.115409419 -s 0 -d 1 -p tcp -e 1060 -c 2 -a 0 -i 5 -k RTR
r -t 1.115698430 -s 1 -d -1 -p ACK -e 38 -c 2 -a 0 -i 0 -k MAC
+ -t 1.115788419 -s 0 -d -1 -p RTS -e 44 -c 2 -a 0 -i 0 -k MAC 
- -t 1.115788419 -s 0 -d -1 -p RTS -e 44 -c 2 -a 0 -i 0 -k MAC
h -t 1.115788419 -s 0 -d -1 -p RTS -e 44 -c 2 -a 0 -i 0 -k MAC
r -t 1.116140430 -s 1 -d -1 -p RTS -e 44 -c 2 -a 0 -i 0 -k MAC
+ -t 1.116150430 -s 1 -d -1 -p CTS -e 38 -c 2 -a 0 -i 0 -k MAC 
- -t 1.116150430 -s 1 -d -1 -p CTS -e 38 -c 2 -a 0 -i 0 -k MAC
h -t 1.116150430 -s 1 -d -1 -p CTS -e 38 -c 2 -a 0 -i 0 -k MAC
r -t 1.116454440 -s 0 -d -1 -p CTS -e 38 -c 2 -a 0 -i 0 -k MAC
+ -t 1.116464440 -s 0 -d 1 -p tcp -e 1118 -c 2 -a 0 -i 4 -k MAC 
- -t 1.116464440 -s 0 -d 1 -p tcp -e 1118 -c 2 -a 0 -i 4 -k MAC
h -t 1.116464440 -s 0 -d 1 -p tcp -e 1118 -c 2 -a 0 -i 4 -k MAC
r -t 1.125408451 -s 1 -d 1 -p tcp -e 1060 -c 2 -a 0 -i 4 -k MAC
+ -t 1.125418451 -s 1 -d -1 -p ACK -e 38 -c 2 -a 0 -i 0 -k MAC 
- -t 1.125418451 -s 1 -d -1 -p ACK -e 38 -c 2 -a 0 -i 0 -k MAC
h -t 1.125418451 -s 1 -d -1 -p ACK -e 38 -c 2 -a 0 -i 0 -k MAC
r -t 1.125433451 -s 1 -d 1 -p tcp -e 1060 -c 2 -a 0 -i 4 -k AGT
+ -t 1.125433451 -s 1 -d -1 -p ack -e 40 -c 2 -a 0 -i 6 -k AGT 
- -t 1.125433451 -s 1 -d -1 -p ack -e 40 -c 2 -a 0 -i 6 -k AGT
h -t 1.125433451 -s 1 -d -1 -p ack -e 40 -c 2 -a 0 -i 6 -k AGT
+ -t 1.125433451 -s 1 -d 0 -p ack -e 60 -c 2 -a 0 -i 6 -k RTR 
- -t 1.125433451 -s 1 -d 0 -p ack -e 60 -c 2 -a 0 -i 6 -k RTR
h -t 1.125433451 -s 1 -d 0 -p ack -e 60 -c 2 -a 0 -i 6 -k RTR
r -t 1.125722462 -s 0 -d -1 -p ACK -e 38 -c 2 -a 0 -i 0 -k MAC
+ -t 1.126112462 -s 0 -d -1 -p RTS -e 44 -c 2 -a 0 -i 0 -k MAC 
- -t 1.126112462 -s 0 -d -1 -p RTS -e 44 -c 2 -a 0 -i 0 -k MAC
h -t 1.126112462 -s 0 -d -1 -p RTS -e 44 -c 2 -a 0 -i 0 -k MAC
r -t 1.126464474 -s 1 -d -1 -p RTS -e 44 -c 2 -a 0 -i 0 -k MAC
+ -t 1.126474474 -s 1 -d -1 -p CTS -e 38 -c 2 -a 0 -i 0 -k MAC 
- -t 1.126474474 -s 1 -d -1 -p CTS -e 38 -c 2 -a 0 -i 0 -k MAC
h -t 1.126474474 -s 1 -d -1 -p CTS -e 38 -c 2 -a 0 -i 0 -k MAC
r -t 1.126778485 -s 0 -d -1 -p CTS -e 38 -c 2 -a 0 -i 0 -k MAC
+ -t 1.126788485 -s 0 -d 1 -p tcp -e 1118 -c 2 -a 0 -i 5 -k MAC 
- -t 1.126788485 -s 0 -d 1 -p tcp -e 1118 -c 2 -a 0 -i 5 -k MAC
h -t 1.126788485 -s 0 -d 1 -p tcp -e 1118 -c 2 -a 0 -i 5 -k MAC
r -t 1.135732497 -s 1 -d 1 -p tcp -e 1060 -c 2 -a 0 -i 5 -k MAC
+ -t 1.135742497 -s 1 -d -1 -p ACK -e 38 -c 2 -a 0 -i 0 -k MAC 
- -t 1.135742497 -s 1 -d -1 -p ACK -e 38 -c 2 -a 0 -i 0 -k MAC
h -t 1.135742497 -s 1 -d -1 -p ACK -e 38 -c 2 -a 0 -i 0 -k MAC
r -t 1.135757497 -s 1 -d 1 -p tcp -e 1060 -c 2 -a 0 -i 5 -k AGT
+ -t 1.135757497 -s 1 -d -1 -p ack -e 40 -c 2 -a 0 -i 7 -k AGT 
- -t 1.135757497 -s 1 -d -1 -p ack -e 40 -c 2 -a 0 -i 7 -k AGT
h -t 1.135757497 -s 1 -d -1 -p ack -e 40 -c 2 -a 0 -i 7 -k AGT
+ -t 1.135757497 -s 1 -d 0 -p ack -e 60 -c 2 -a 0 -i 7 -k RTR 
- -t 1.135757497 -s 1 -d 0 -p ack -e 60 -c 2 -a 0 -i 7 -k RTR
h -t 1.135757497 -s 1 -d 0 -p ack -e 60 -c 2 -a 0 -i 7 -k RTR
r -t 1.136046509 -s 0 -d -1 -p ACK -e 38 -c 2 -a 0 -i 0 -k MAC
+ -t 1.136196497 -s 1 -d -1 -p RTS -e 44 -c 2 -a 0 -i 0 -k MAC 
- -t 1.136196497 -s 1 -d -1 -p RTS -e 44 -c 2 -a 0 -i 0 -k MAC
h -t 1.136196497 -s 1 -d -1 -p RTS -e 44 -c 2 -a 0 -i 0 -k MAC
r -t 1.136548509 -s 0 -d -1 -p RTS -e 44 -c 2 -a 0 -i 0 -k MAC
+ -t 1.136558509 -s 0 -d -1 -p CTS -e 38 -c 2 -a 0 -i 0 -k MAC 
- -t 1.136558509 -s 0 -d -1 -p CTS -e 38 -c 2 -a 0 -i 0 -k MAC
h -t 1.136558509 -s 0 -d -1 -p CTS -e 38 -c 2 -a 0 -i 0 -k MAC
r -t 1.136862522 -s 1 -d -1 -p CTS -e 38 -c 2 -a 0 -i 0 -k MAC
+ -t 1.136872522 -s 1 -d 0 -p ack -e 118 -c 2 -a 0 -i 6 -k MAC 
- -t 1.136872522 -s 1 -d 0 -p ack -e 118 -c 2 -a 0 -i 6 -k MAC
h -t 1.136872522 -s 1 -d 0 -p ack -e 118 -c 2 -a 0 -i 6 -k MAC
r -t 1.137816534 -s 0 -d 0 -p ack -e 60 -c 2 -a 0 -i 6 -k MAC
+ -t 1.137826534 -s 0 -d -1 -p ACK -e 38 -c 2 -a 0 -i 0 -k MAC 
- -t 1.137826534 -s 0 -d -1 -p ACK -e 38 -c 2 -a 0 -i 0 -k MAC
h -t 1.137826534 -s 0 -d -1 -p ACK -e 38 -c 2 -a 0 -i 0 -k MAC
r -t 1.137841534 -s 0 -d 0 -p ack -e 60 -c 2 -a 0 -i 6 -k AGT
+ -t 1.137841534 -s 0 -d -1 -p tcp -e 1040 -c 2 -a 0 -i 8 -k AGT 
- -t 1.137841534 -s 0 -d -1 -p tcp -e 1040 -c 2 -a 0 -i 8 -k AGT
h -t 1.137841534 -s 0 -d -1 -p tcp -e 1040 -c 2 -a 0 -i 8 -k AGT
+ -t 1.137841534 -s 0 -d 1 -p tcp -e 1060 -c 2 -a 0 -i 8 -k RTR 
- -t 1.137841534 -s 0 -d 1 -p tcp -e 1060 -c 2 -a 0 -i 8 -k RTR
h -t 1.137841534 -s 0 -d 1 -p tcp -e 1060 -c 2 -a 0 -i 8 -k RTR
+ -t 1.137841534 -s 0 -d -1 -p tcp -e 1040 -c 2 -a 0 -i 9 -k AGT 
- -t 1.137841534 -s 0 -d -1 -p tcp -e 1040 -c 2 -a 0 -i 9 -k AGT
h -t 1.137841534 -s 0 -d -1 -p tcp -e 1040 -c 2 -a 0 -i 9 -k AGT
+ -t 1.137841534 -s 0 -d 1 -p tcp -e 1060 -c 2 -a 0 -i 9 -k RTR 
- -t 1.137841534 -s 0 -d 1 -p tcp -e 1060 -c 2 -a 0 -i 9 -k RTR
h -t 1.137841534 -s 0 -d 1 -p tcp -e 1060 -c 2 -a 0 -i 9 -k RTR
r -t 1.138130547 -s 1 -d -1 -p ACK -e 38 -c 2 -a 0 -i 0 -k MAC
+ -t 1.138380547 -s 1 -d -1 -p RTS -e 44 -c 2 -a 0 -i 0 -k MAC 
- -t 1.138380547 -s 1 -d -1 -p RTS -e 44 -c 2 -a 0 -i 0 -k MAC
h -t 1.138380547 -s 1 -d -1 -p RTS -e 44 -c 2 -a 0 -i 0 -k MAC
r -t 1.138732559 -s 0 -d -1 -p RTS -e 44 -c 2 -a 0 -i 0 -k MAC
+ -t 1.138742559 -s 0 -d -1 -p CTS -e 38 -c 2 -a 0 -i 0 -k MAC 
- -t 1.138742559 -s 0 -d -1 -p CTS -e 38 -c 2 -a 0 -i 0 -k MAC
h -t 1.138742559 -s 0 -d -1 -p CTS -e 38 -c 2 -a 0 -i 0 -k MAC
r -t 1.139046572 -s 1 -d -1 -p CTS -e 38 -c 2 -a 0 -i 0 -k MAC
+ -t 1.139056572 -s 1 -d 0 -p ack -e 118 -c 2 -a 0 -i 7 -k MAC 
- -t 1.139056572 -s 1 -d 0 -p ack -e 118 -c 2 -a 0 -i 7 -k MAC
h -t 1.139056572 -s 1 -d 0 -p ack -e 118 -c 2 -a 0 -i 7 -k MAC
r -t 1.140000585 -s 0 -d 0 -p ack -e 60 -c 2 -a 0 -i 7 -k MAC
+ -t 1.140010585 -s 0 -d -1 -p ACK -e 38 -c 2 -a 0 -i 0 -k MAC 
- -t 1.140010585 -s 0 -d -1 -p ACK -e 38 -c 2 -a 0 -i 0 -k MAC
h -t 1.140010585 -s 0 -d -1 -p ACK -e 38 -c 2 -a 0 -i 0 -k MAC
r -t 1.140025585 -s 0 -d 0 -p ack -e 60 -c 2 -a 0 -i 7 -k AGT
+ -t 1.140025585 -s 0 -d -1 -p tcp -e 1040 -c 2 -a 0 -i 10 -k AGT 
- -t 1.140025585 -s 0 -d -1 -p tcp -e 1040 -c 2 -a 0 -i 10 -k AGT
h -t 1.140025585 -s 0 -d -1 -p tcp -e 1040 -c 2 -a 0 -i 10 -k AGT
+ -t 1.140025585 -s 0 -d 1 -p tcp -e 1060 -c 2 -a 0 -i 10 -k RTR 
- -t 1.140025585 -s 0 -d 1 -p tcp -e 1060 -c 2 -a 0 -i 10 -k RTR
h -t 1.140025585 -s 0 -d 1 -p tcp -e 1060 -c 2 -a 0 -i 10 -k RTR
+ -t 1.140025585 -s 0 -d -1 -p tcp -e 1040 -c 2 -a 0 -i 11 -k AGT 
- -t 1.140025585 -s 0 -d -1 -p tcp -e 1040 -c 2 -a 0 -i 11 -k AGT
h -t 1.140025585 -s 0 -d -1 -p tcp -e 1040 -c 2 -a 0 -i 11 -k AGT
+ -t 1.140025585 -s 0 -d 1 -p tcp -e 1060 -c 2 -a 0 -i 11 -k RTR 
- -t 1.140025585 -s 0 -d 1 -p tcp -e 1060 -c 2 -a 0 -i 11 -k RTR
h -t 1.140025585 -s 0 -d 1 -p tcp -e 1060 -c 2 -a 0 -i 11 -k RTR
r -t 1.140314597 -s 1 -d -1 -p ACK -e 38 -c 2 -a 0 -i 0 -k MAC
+ -t 1.140384585 -s 0 -d -1 -p RTS -e 44 -c 2 -a 0 -i 0 -k MAC 
- -t 1.140384585 -s 0 -d -1 -p RTS -e 44 -c 2 -a 0 -i 0 -k MAC
h -t 1.140384585 -s 0 -d -1 -p RTS -e 44 -c 2 -a 0 -i 0 -k MAC
r -t 1.140736597 -s 1 -d -1 -p RTS -e 44 -c 2 -a 0 -i 0 -k MAC
+ -t 1.140746597 -s 1 -d -1 -p CTS -e 38 -c 2 -a 0 -i 0 -k MAC 
- -t 1.140746597 -s 1 -d -1 -p CTS -e 38 -c 2 -a 0 -i 0 -k MAC
h -t 1.140746597 -s 1 -d -1 -p CTS -e 38 -c 2 -a 0 -i 0 -k MAC
r -t 1.141050610 -s 0 -d -1 -p CTS -e 38 -c 2 -a 0 -i 0 -k MAC
+ -t 1.141060610 -s 0 -d 1 -p tcp -e 1118 -c 2 -a 0 -i 8 -k MAC 
- -t 1.141060610 -s 0 -d 1 -p tcp -e 1118 -c 2 -a 0 -i 8 -k MAC
h -t 1.141060610 -s 0 -d 1 -p tcp -e 1118 -c 2 -a 0 -i 8 -k MAC
r -t 1.150004623 -s 1 -d 1 -p tcp -e 1060 -c 2 -a 0 -i 8 -k MAC
+ -t 1.150014623 -s 1 -d -1 -p ACK -e 38 -c 2 -a 0 -i 0 -k MAC 
- -t 1.150014623 -s 1 -d -1 -p ACK -e 38 -c 2 -a 0 -i 0 -k MAC
h -t 1.150014623 -s 1 -d -1 -p ACK -e 38 -c 2 -a 0 -i 0 -k MAC
r -t 1.150029623 -s 1 -d 1 -p tcp -e 1060 -c 2 -a 0 -i 8 -k AGT
+ -t 1.150029623 -s 1 -d -1 -p ack -e 40 -c 2 -a 0 -i 12 -k AGT 
- -t 1.150029623 -s 1 -d -1 -p ack -e 40 -c 2 -a 0 -i 12 -k AGT
h -t 1.150029623 -s 1 -d -1 -p ack -e 40 -c 2 -a 0 -i 12 -k AGT
+ -t 1.150029623 -s 1 -d 0 -p ack -e 60 -c 2 -a 0 -i 12 -k RTR 
- -t 1.150029623 -s 1 -d 0 -p ack -e 60 -c 2 -a 0 -i 12 -k RTR
h -t 1.150029623 -s 1 -d 0 -p ack -e 60 -c 2 -a 0 -i 12 -k RTR
r -t 1.150318637 -s 0 -d -1 -p ACK -e 38 -c 2 -a 0 -i 0 -k MAC
+ -t 1.150388637 -s 0 -d -1 -p RTS -e 44 -c 2 -a 0 -i 0 -k MAC 
- -t 1.150388637 -s 0 -d -1 -p RTS -e 44 -c 2 -a 0 -i 0 -k MAC
h -t 1.150388637 -s 0 -d -1 -p RTS -e 44 -c 2 -a 0 -i 0 -k MAC
r -t 1.150740651 -s 1 -d -1 -p RTS -e 44 -c 2 -a 0 -i 0 -k MAC
+ -t 1.150750651 -s 1 -d -1 -p CTS -e 38 -c 2 -a 0 -i 0 -k MAC 
- -t 1.150750651 -s 1 -d -1 -p CTS -e 38 -c 2 -a 0 -i 0 -k MAC
h -t 1.150750651 -s 1 -d -1 -p CTS -e 38 -c 2 -a 0 -i 0 -k MAC
r -t 1.151054664 -s 0 -d -1 -p CTS -e 38 -c 2 -a 0 -i 0 -k MAC
+ -t 1.151064664 -s 0 -d 1 -p tcp -e 1118 -c 2 -a 0 -i 9 -k MAC 
- -t 1.151064664 -s 0 -d 1 -p tcp -e 1118 -c 2 -a 0 -i 9 -k MAC
h -t 1.151064664 -s 0 -d 1 -p tcp -e 1118 -c 2 -a 0 -i 9 -k MAC
r -t 1.160008678 -s 1 -d 1 -p tcp -e 1060 -c 2 -a 0 -i 9 -k MAC
+ -t 1.160018678 -s 1 -d -1 -p ACK -e 38 -c 2 -a 0 -i 0 -k MAC 
- -t 1.160018678 -s 1 -d -1 -p ACK -e 38 -c 2 -a 0 -i 0 -k MAC
h -t 1.160018678 -s 1 -d -1 -p ACK -e 38 -c 2 -a 0 -i 0 -k MAC
r -t 1.160033678 -s 1 -d 1 -p tcp -e 1060 -c 2 -a 0 -i 9 -k AGT
+ -t 1.160033678 -s 1 -d -1 -p ack -e 40 -c 2 -a 0 -i 13 -k AGT 
- -t 1.160033678 -s 1 -d -1 -p ack -e 40 -c 2 -a 0 -i 13 -k AGT
h -t 1.160033678 -s 1 -d -1 -p ack -e 40 -c 2 -a 0 -i 13 -k AGT
+ -t 1.160033678 -s 1 -d 0 -p ack -e 60 -c 2 -a 0 -i 13 -k RTR 
- -t 1.160033678 -s 1 -d 0 -p ack -e 60 -c 2 -a 0 -i 13 -k RTR
h -t 1.160033678 -s 1 -d 0 -p ack -e 60 -c 2 -a 0 -i 13 -k RTR
r -t 1.160322693 -s 0 -d -1 -p ACK -e 38 -c 2 -a 0 -i 0 -k MAC
+ -t 1.160552678 -s 1 -d -1 -p RTS -e 44 -c 2 -a 0 -i 0 -k MAC 
- -t 1.160552678 -s 1 -d -1 -p RTS -e 44 -c 2 -a 0 -i 0 -k MAC
h -t 1.160552678 -s 1 -d -1 -p RTS -e 44 -c 2 -a 0 -i 0 -k MAC
r -t 1.160904693 -s 0 -d -1 -p RTS -e 44 -c 2 -a 0 -i 0 -k MAC
+ -t 1.160914693 -s 0 -d -1 -p CTS -e 38 -c 2 -a 0 -i 0 -k MAC 
- -t 1.160914693 -s 0 -d -1 -p CTS -e 38 -c 2 -a 0 -i 0 -k MAC
h -t 1.160914693 -s 0 -d -1 -p CTS -e 38 -c 2 -a 0 -i 0 -k MAC
r -t 1.161218707 -s 1 -d -1 -p CTS -e 38 -c 2 -a 0 -i 0 -k MAC
+ -t 1.161228707 -s 1 -d 0 -p ack -e 118 -c 2 -a 0 -i 12 -k MAC 
- -t 1.161228707 -s 1 -d 0 -p ack -e 118 -c 2 -a 0 -i 12 -k MAC
h -t 1.161228707 -s 1 -d 0 -p ack -e 118 -c 2 -a 0 -i 12 -k MAC
r -t 1.162172722 -s 0 -d 0 -p ack -e 60 -c 2 -a 0 -i 12 -k MAC
+ -t 1.162182722 -s 0 -d -1 -p ACK -e 38 -c 2 -a 0 -i 0 -k MAC 
- -t 1.162182722 -s 0 -d -1 -p ACK -e 38 -c 2 -a 0 -i 0 -k MAC
h -t 1.162182722 -s 0 -d -1 -p ACK -e 38 -c 2 -a 0 -i 0 -k MAC
r -t 1.162197722 -s 0 -d 0 -p ack -e 60 -c 2 -a 0 -i 12 -k AGT
+ -t 1.162197722 -s 0 -d -1 -p tcp -e 1040 -c 2 -a 0 -i 14 -k AGT 
- -t 1.162197722 -s 0 -d -1 -p tcp -e 1040 -c 2 -a 0 -i 14 -k AGT
h -t 1.162197722 -s 0 -d -1 -p tcp -e 1040 -c 2 -a 0 -i 14 -k AGT
+ -t 1.162197722 -s 0 -d 1 -p tcp -e 1060 -c 2 -a 0 -i 14 -k RTR 
- -t 1.162197722 -s 0 -d 1 -p tcp -e 1060 -c 2 -a 0 -i 14 -k RTR
h -t 1.162197722 -s 0 -d 1 -p tcp -e 1060 -c 2 -a 0 -i 14 -k RTR
+ -t 1.162197722 -s 0 -d -1 -p tcp -e 1040 -c 2 -a 0 -i 15 -k AGT 
- -t 1.162197722 -s 0 -d -1 -p tcp -e 1040 -c 2 -a 0 -i 15 -k AGT
h -t 1.162197722 -s 0 -d -1 -p tcp -e 1040 -c 2 -a 0 -i 15 -k AGT
+ -t 1.162197722 -s 0 -d 1 -p tcp -e 1060 -c 2 -a 0 -i 15 -k RTR 
- -t 1.162197722 -s 0 -d 1 -p tcp -e 1060 -c 2 -a 0 -i 15 -k RTR
h -t 1.162197722 -s 0 -d 1 -p tcp -e 1060 -c 2 -a 0 -i 15 -k RTR
r -t 1.162486737 -s 1 -d -1 -p ACK -e 38 -c 2 -a 0 -i 0 -k MAC
+ -t 1.162596722 -s 0 -d -1 -p RTS -e 44 -c 2 -a 0 -i 0 -k MAC 
- -t 1.162596722 -s 0 -d -1 -p RTS -e 44 -c 2 -a 0 -i 0 -k MAC
h -t 1.162596722 -s 0 -d -1 -p RTS -e 44 -c 2 -a 0 -i 0 -k MAC
r -t 1.162948737 -s 1 -d -1 -p RTS -e 44 -c 2 -a 0 -i 0 -k MAC
+ -t 1.162958737 -s 1 -d -1 -p CTS -e 38 -c 2 -a 0 -i 0 -k MAC 
- -t 1.162958737 -s 1 -d -1 -p CTS -e 38 -c 2 -a 0 -i 0 -k MAC
h -t 1.162958737 -s 1 -d -1 -p CTS -e 38 -c 2 -a 0 -i 0 -k MAC
r -t 1.163262752 -s 0 -d -1 -p CTS -e 38 -c 2 -a 0 -i 0 -k MAC
+ -t 1.163272752 -s 0 -d 1 -p tcp -e 1118 -c 2 -a 0 -i 10 -k MAC 
- -t 1.163272752 -s 0 -d 1 -p tcp -e 1118 -c 2 -a 0 -i 10 -k MAC
h -t 1.163272752 -s 0 -d 1 -p tcp -e 1118 -c 2 -a 0 -i 10 -k MAC
r -t 1.172216767 -s 1 -d 1 -p tcp -e 1060 -c 2 -a 0 -i 10 -k MAC
+ -t 1.172226767 -s 1 -d -1 -p ACK -e 38 -c 2 -a 0 -i 0 -k MAC 
- -t 1.172226767 -s 1 -d -1 -p ACK -e 38 -c 2 -a 0 -i 0 -k MAC
h -t 1.172226767 -s 1 -d -1 -p ACK -e 38 -c 2 -a 0 -i 0 -k MAC
r -t 1.172241767 -s 1 -d 1 -p tcp -e 1060 -c 2 -a 0 -i 10 -k AGT
+ -t 1.172241767 -s 1 -d -1 -p ack -e 40 -c 2 -a 0 -i 16 -k AGT 
- -t 1.172241767 -s 1 -d -1 -p ack -e 40 -c 2 -a 0 -i 16 -k AGT
h -t 1.172241767 -s 1 -d -1 -p ack -e 40 -c 2 -a 0 -i 16 -k AGT
+ -t 1.172241767 -s 1 -d 0 -p ack -e 60 -c 2 -a 0 -i 16 -k RTR 
- -t 1.172241767 -s 1 -d 0 -p ack -e 60 -c 2 -a 0 -i 16 -k RTR
h -t 1.172241767 -s 1 -d 0 -p ack -e 60 -c 2 -a 0 -i 16 -k RTR
r -t 1.172530782 -s 0 -d -1 -p ACK -e 38 -c 2 -a 0 -i 0 -k MAC
+ -t 1.172760782 -s 0 -d -1 -p RTS -e 44 -c 2 -a 0 -i 0 -k MAC 
- -t 1.172760782 -s 0 -d -1 -p RTS -e 44 -c 2 -a 0 -i 0 -k MAC
h -t 1.172760782 -s 0 -d -1 -p RTS -e 44 -c 2 -a 0 -i 0 -k MAC
r -t 1.173112798 -s 1 -d -1 -p RTS -e 44 -c 2 -a 0 -i 0 -k MAC
+ -t 1.173122798 -s 1 -d -1 -p CTS -e 38 -c 2 -a 0 -i 0 -k MAC 
- -t 1.173122798 -s 1 -d -1 -p CTS -e 38 -c 2 -a 0 -i 0 -k MAC
h -t 1.173122798 -s 1 -d -1 -p CTS -e 38 -c 2 -a 0 -i 0 -k MAC
r -t 1.173426814 -s 0 -d -1 -p CTS -e 38 -c 2 -a 0 -i 0 -k MAC
+ -t 1.173436814 -s 0 -d 1 -p tcp -e 1118 -c 2 -a 0 -i 11 -k MAC 
- -t 1.173436814 -s 0 -d 1 -p tcp -e 1118 -c 2 -a 0 -i 11 -k MAC
h -t 1.173436814 -s 0 -d 1 -p tcp -e 1118 -c 2 -a 0 -i 11 -k MAC
r -t 1.182380830 -s 1 -d 1 -p tcp -e 1060 -c 2 -a 0 -i 11 -k MAC
+ -t 1.182390830 -s 1 -d -1 -p ACK -e 38 -c 2 -a 0 -i 0 -k MAC 
- -t 1.182390830 -s 1 -d -1 -p ACK -e 38 -c 2 -a 0 -i 0 -k MAC
h -t 1.182390830 -s 1 -d -1 -p ACK -e 38 -c 2 -a 0 -i 0 -k MAC
r -t 1.182405830 -s 1 -d 1 -p tcp -e 1060 -c 2 -a 0 -i 11 -k AGT
+ -t 1.182405830 -s 1 -d -1 -p ack -e 40 -c 2 -a 0 -i 17 -k AGT 
- -t 1.182405830 -s 1 -d -1 -p ack -e 40 -c 2 -a 0 -i 17 -k AGT
h -t 1.182405830 -s 1 -d -1 -p ack -e 40 -c 2 -a 0 -i 17 -k AGT
+ -t 1.182405830 -s 1 -d 0 -p ack -e 60 -c 2 -a 0 -i 17 -k RTR 
- -t 1.182405830 -s 1 -d 0 -p ack -e 60 -c 2 -a 0 -i 17 -k RTR
h -t 1.182405830 -s 1 -d 0 -p ack -e 60 -c 2 -a 0 -i 17 -k RTR
r -t 1.182694846 -s 0 -d -1 -p ACK -e 38 -c 2 -a 0 -i 0 -k MAC
+ -t 1.182944830 -s 1 -d -1 -p RTS -e 44 -c 2 -a 0 -i 0 -k MAC 
- -t 1.182944830 -s 1 -d -1 -p RTS -e 44 -c 2 -a 0 -i 0 -k MAC
h -t 1.182944830 -s 1 -d -1 -p RTS -e 44 -c 2 -a 0 -i 0 -k MAC
r -t 1.183296846 -s 0 -d -1 -p RTS -e 44 -c 2 -a 0 -i 0 -k MAC
+ -t 1.183306846 -s 0 -d -1 -p CTS -e 38 -c 2 -a 0 -i 0 -k MAC 
- -t 1.183306846 -s 0 -d -1 -p CTS -e 38 -c 2 -a 0 -i 0 -k MAC
h -t 1.183306846 -s 0 -d -1 -p CTS -e 38 -c 2 -a 0 -i 0 -k MAC
r -t 1.183610863 -s 1 -d -1 -p CTS -e 38 -c 2 -a 0 -i 0 -k MAC
+ -t 1.183620863 -s 1 -d 0 -p ack -e 118 -c 2 -a 0 -i 13 -k MAC 
- -t 1.183620863 -s 1 -d 0 -p ack -e 118 -c 2 -a 0 -i 13 -k MAC
h -t 1.183620863 -s 1 -d 0 -p ack -e 118 -c 2 -a 0 -i 13 -k MAC
r -t 1.184564880 -s 0 -d 0 -p ack -e 60 -c 2 -a 0 -i 13 -k MAC
+ -t 1.184574880 -s 0 -d -1 -p ACK -e 38 -c 2 -a 0 -i 0 -k MAC 
- -t 1.184574880 -s 0 -d -1 -p ACK -e 38 -c 2 -a 0 -i 0 -k MAC
h -t 1.184574880 -s 0 -d -1 -p ACK -e 38 -c 2 -a 0 -i 0 -k MAC
r -t 1.184589880 -s 0 -d 0 -p ack -e 60 -c 2 -a 0 -i 13 -k AGT
+ -t 1.184589880 -s 0 -d -1 -p tcp -e 1040 -c 2 -a 0 -i 18 -k AGT 
- -t 1.184589880 -s 0 -d -1 -p tcp -e 1040 -c 2 -a 0 -i 18 -k AGT
h -t 1.184589880 -s 0 -d -1 -p tcp -e 1040 -c 2 -a 0 -i 18 -k AGT
+ -t 1.184589880 -s 0 -d 1 -p tcp -e 1060 -c 2 -a 0 -i 18 -k RTR 
- -t 1.184589880 -s 0 -d 1 -p tcp -e 1060 -c 2 -a 0 -i 18 -k RTR
h -t 1.184589880 -s 0 -d 1 -p tcp -e 1060 -c 2 -a 0 -i 18 -k RTR
+ -t 1.184589880 -s 0 -d -1 -p tcp -e 1040 -c 2 -a 0 -i 19 -k AGT 
- -t 1.184589880 -s 0 -d -1 -p tcp -e 1040 -c 2 -a 0 -i 19 -k AGT
h -t 1.184589880 -s 0 -d -1 -p tcp -e 1040 -c 2 -a 0 -i 19 -k AGT
+ -t 1.184589880 -s 0 -d 1 -p tcp -e 1060 -c 2 -a 0 -i 19 -k RTR 
- -t 1.184589880 -s 0 -d 1 -p tcp -e 1060 -c 2 -a 0 -i 19 -k RTR
h -t 1.184589880 -s 0 -d 1 -p tcp -e 1060 -c 2 -a 0 -i 19 -k RTR
r -t 1.184878897 -s 1 -d -1 -p ACK -e 38 -c 2 -a 0 -i 0 -k MAC
+ -t 1.185308880 -s 0 -d -1 -p RTS -e 44 -c 2 -a 0 -i 0 -k MAC 
- -t 1.185308880 -s 0 -d -1 -p RTS -e 44 -c 2 -a 0 -i 0 -k MAC
h -t 1.185308880 -s 0 -d -1 -p RTS -e 44 -c 2 -a 0 -i 0 -k MAC
r -t 1.185660897 -s 1 -d -1 -p RTS -e 44 -c 2 -a 0 -i 0 -k MAC
+ -t 1.185670897 -s 1 -d -1 -p CTS -e 38 -c 2 -a 0 -i 0 -k MAC 
- -t 1.185670897 -s 1 -d -1 -p CTS -e 38 -c 2 -a 0 -i 0 -k MAC
h -t 1.185670897 -s 1 -d -1 -p CTS -e 38 -c 2 -a 0 -i 0 -k MAC
r -t 1.185974914 -s 0 -d -1 -p CTS -e 38 -c 2 -a 0 -i 0 -k MAC
+ -t 1.185984914 -s 0 -d 1 -p tcp -e 1118 -c 2 -a 0 -i 14 -k MAC 
- -t 1.185984914 -s 0 -d 1 -p tcp -e 1118 -c 2 -a 0 -i 14 -k MAC
h -t 1.185984914 -s 0 -d 1 -p tcp -e 1118 -c 2 -a 0 -i 14 -k MAC
r -t 1.194928931 -s 1 -d 1 -p tcp -e 1060 -c 2 -a 0 -i 14 -k MAC
+ -t 1.194938931 -s 1 -d -1 -p ACK -e 38 -c 2 -a 0 -i 0 -k MAC 
- -t 1.194938931 -s 1 -d -1 -p ACK -e 38 -c 2 -a 0 -i 0 -k MAC
h -t 1.194938931 -s 1 -d -1 -p ACK -e 38 -c 2 -a 0 -i 0 -k MAC
r -t 1.194953931 -s 1 -d 1 -p tcp -e 1060 -c 2 -a 0 -i 14 -k AGT
+ -t 1.194953931 -s 1 -d -1 -p ack -e 40 -c 2 -a 0 -i 20 -k AGT 
- -t 1.194953931 -s 1 -d -1 -p ack -e 40 -c 2 -a 0 -i 20 -k AGT
h -t 1.194953931 -s 1 -d -1 -p ack -e 40 -c 2 -a 0 -i 20 -k AGT
+ -t 1.194953931 -s 1 -d 0 -p ack -e 60 -c 2 -a 0 -i 20 -k RTR 
- -t 1.194953931 -s 1 -d 0 -p ack -e 60 -c 2 -a 0 -i 20 -k RTR
h -t 1.194953931 -s 1 -d 0 -p ack -e 60 -c 2 -a 0 -i 20 -k RTR
r -t 1.195242948 -s 0 -d -1 -p ACK -e 38 -c 2 -a 0 -i 0 -k MAC
+ -t 1.195312931 -s 1 -d -1 -p RTS -e 44 -c 2 -a 0 -i 0 -k MAC 
- -t 1.195312931 -s 1 -d -1 -p RTS -e 44 -c 2 -a 0 -i 0 -k MAC
h -t 1.195312931 -s 1 -d -1 -p RTS -e 44 -c 2 -a 0 -i 0 -k MAC
r -t 1.195664948 -s 0 -d -1 -p RTS -e 44 -c 2 -a 0 -i 0 -k MAC
+ -t 1.195674948 -s 0 -d -1 -p CTS -e 38 -c 2 -a 0 -i 0 -k MAC 
- -t 1.195674948 -s 0 -d -1 -p CTS -e 38 -c 2 -a 0 -i 0 -k MAC
h -t 1.195674948 -s 0 -d -1 -p CTS -e 38 -c 2 -a 0 -i 0 -k MAC
r -t 1.195978966 -s 1 -d -1 -p CTS -e 38 -c 2 -a 0 -i 0 -k MAC
+ -t 1.195988966 -s 1 -d 0 -p ack -e 118 -c 2 -a 0 -i 16 -k MAC 
- -t 1.195988966 -s 1 -d 0 -p ack -e 118 -c 2 -a 0 -i 16 -k MAC
h -t 1.195988966 -s 1 -d 0 -p ack -e 118 -c 2 -a 0 -i 16 -k MAC
r -t 1.196932984 -s 0 -d 0 -p ack -e 60 -c 2 -a 0 -i 16 -k MAC
+ -t 1.196942984 -s 0 -d -1 -p ACK -e 38 -c 2 -a 0 -i 0 -k MAC 
- -t 1.196942984 -s 0 -d -1 -p ACK -e 38 -c 2 -a 0 -i 0 -k MAC
h -t 1.196942984 -s 0 -d -1 -p ACK -e 38 -c 2 -a 0 -i 0 -k MAC
r -t 1.196957984 -s 0 -d 0 -p ack -e 60 -c 2 -a 0 -i 16 -k AGT
+ -t 1.196957984 -s 0 -d -1 -p tcp -e 1040 -c 2 -a 0 -i 21 -k AGT 
- -t 1.196957984 -s 0 -d -1 -p tcp -e 1040 -c 2 -a 0 -i 21 -k AGT
h -t 1.196957984 -s 0 -d -1 -p tcp -e 1040 -c 2 -a 0 -i 21 -k AGT
+ -t 1.196957984 -s 0 -d 1 -p tcp -e 1060 -c 2 -a 0 -i 21 -k RTR 
- -t 1.196957984 -s 0 -d 1 -p tcp -e 1060 -c 2 -a 0 -i 21 -k RTR
h -t 1.196957984 -s 0 -d 1 -p tcp -e 1060 -c 2 -a 0 -i 21 -k RTR
+ -t 1.196957984 -s 0 -d -1 -p tcp -e 1040 -c 2 -a 0 -i 22 -k AGT 
- -t 1.196957984 -s 0 -d -1 -p tcp -e 1040 -c 2 -a 0 -i 22 -k AGT
h -t 1.196957984 -s 0 -d -1 -p tcp -e 1040 -c 2 -a 0 -i 22 -k AGT
+ -t 1.196957984 -s 0 -d 1 -p tcp -e 1060 -c 2 -a 0 -i 22 -k RTR 
- -t 1.196957984 -s 0 -d 1 -p tcp -e 1060 -c 2 -a 0 -i 22 -k RTR
h -t 1.196957984 -s 0 -d 1 -p tcp -e 1060 -c 2 -a 0 -i 22 -k RTR
r -t 1.197247002 -s 1 -d -1 -p ACK -e 38 -c 2 -a 0 -i 0 -k MAC
+ -t 1.197657002 -s 1 -d -1 -p RTS -e 44 -c 2 -a 0 -i 0 -k MAC 
- -t 1.197657002 -s 1 -d -1 -p RTS -e 44 -c 2 -a 0 -i 0 -k MAC
h -t 1.197657002 -s 1 -d -1 -p RTS -e 44 -c 2 -a 0 -i 0 -k MAC
r -t 1.198009020 -s 0 -d -1 -p RTS -e 44 -c 2 -a 0 -i 0 -k MAC
+ -t 1.198019020 -s 0 -d -1 -p CTS -e 38 -c 2 -a 0 -i 0 -k MAC 
- -t 1.198019020 -s 0 -d -1 -p CTS -e 38 -c 2 -a 0 -i 0 -k MAC
h -t 1.198019020 -s 0 -d -1 -p CTS -e 38 -c 2 -a 0 -i 0 -k MAC
r -t 1.198323038 -s 1 -d -1 -p CTS -e 38 -c 2 -a 0 -i 0 -k MAC
+ -t 1.198333038 -s 1 -d 0 -p ack -e 118 -c 2 -a 0 -i 17 -k MAC 
- -t 1.198333038 -s 1 -d 0 -p ack -e 118 -c 2 -a 0 -i 17 -k MAC
h -t 1.198333038 -s 1 -d 0 -p ack -e 118 -c 2 -a 0 -i 17 -k MAC
r -t 1.199277056 -s 0 -d 0 -p ack -e 60 -c 2 -a 0 -i 17 -k MAC
+ -t 1.199287056 -s 0 -d -1 -p ACK -e 38 -c 2 -a 0 -i 0 -k MAC 
- -t 1.199287056 -s 0 -d -1 -p ACK -e 38 -c 2 -a 0 -i 0 -k MAC
h -t 1.199287056 -s 0 -d -1 -p ACK -e 38 -c 2 -a 0 -i 0 -k MAC
r -t 1.199302056 -s 0 -d 0 -p ack -e 60 -c 2 -a 0 -i 17 -k AGT
+ -t 1.199302056 -s 0 -d -1 -p tcp -e 1040 -c 2 -a 0 -i 23 -k AGT 
- -t 1.199302056 -s 0 -d -1 -p tcp -e 1040 -c 2 -a 0 -i 23 -k AGT
h -t 1.199302056 -s 0 -d -1 -p tcp -e 1040 -c 2 -a 0 -i 23 -k AGT
+ -t 1.199302056 -s 0 -d 1 -p tcp -e 1060 -c 2 -a 0 -i 23 -k RTR 
- -t 1.199302056 -s 0 -d 1 -p tcp -e 1060 -c 2 -a 0 -i 23 -k RTR
h -t 1.199302056 -s 0 -d 1 -p tcp -e 1060 -c 2 -a 0 -i 23 -k RTR
+ -t 1.199302056 -s 0 -d -1 -p tcp -e 1040 -c 2 -a 0 -i 24 -k AGT 
- -t 1.199302056 -s 0 -d -1 -p tcp -e 1040 -c 2 -a 0 -i 24 -k AGT
h -t 1.199302056 -s 0 -d -1 -p tcp -e 1040 -c 2 -a 0 -i 24 -k AGT
+ -t 1.199302056 -s 0 -d 1 -p tcp -e 1060 -c 2 -a 0 -i 24 -k RTR 
- -t 1.199302056 -s 0 -d 1 -p tcp -e 1060 -c 2 -a 0 -i 24 -k RTR
h -t 1.199302056 -s 0 -d 1 -p tcp -e 1060 -c 2 -a 0 -i 24 -k RTR
r -t 1.199591075 -s 1 -d -1 -p ACK -e 38 -c 2 -a 0 -i 0 -k MAC
+ -t 1.199681075 -s 1 -d -1 -p RTS -e 44 -c 2 -a 0 -i 0 -k MAC 
- -t 1.199681075 -s 1 -d -1 -p RTS -e 44 -c 2 -a 0 -i 0 -k MAC
h -t 1.199681075 -s 1 -d -1 -p RTS -e 44 -c 2 -a 0 -i 0 -k MAC
r -t 1.200033093 -s 0 -d -1 -p RTS -e 44 -c 2 -a 0 -i 0 -k MAC
+ -t 1.200043093 -s 0 -d -1 -p CTS -e 38 -c 2 -a 0 -i 0 -k MAC 
- -t 1.200043093 -s 0 -d -1 -p CTS -e 38 -c 2 -a 0 -i 0 -k MAC
h -t 1.200043093 -s 0 -d -1 -p CTS -e 38 -c 2 -a 0 -i 0 -k MAC
r -t 1.200347111 -s 1 -d -1 -p CTS -e 38 -c 2 -a 0 -i 0 -k MAC
+ -t 1.200357111 -s 1 -d 0 -p ack -e 118 -c 2 -a 0 -i 20 -k MAC 
- -t 1.200357111 -s 1 -d 0 -p ack -e 118 -c 2 -a 0 -i 20 -k MAC
h -t 1.200357111 -s 1 -d 0 -p ack -e 118 -c 2 -a 0 -i 20 -k MAC
r -t 1.201301129 -s 0 -d 0 -p ack -e 60 -c 2 -a 0 -i 20 -k MAC
+ -t 1.201311129 -s 0 -d -1 -p ACK -e 38 -c 2 -a 0 -i 0 -k MAC 
- -t 1.201311129 -s 0 -d -1 -p ACK -e 38 -c 2 -a 0 -i 0 -k MAC
h -t 1.201311129 -s 0 -d -1 -p ACK -e 38 -c 2 -a 0 -i 0 -k MAC
r -t 1.201326129 -s 0 -d 0 -p ack -e 60 -c 2 -a 0 -i 20 -k AGT
+ -t 1.201326129 -s 0 -d -1 -p tcp -e 1040 -c 2 -a 0 -i 25 -k AGT 
- -t 1.201326129 -s 0 -d -1 -p tcp -e 1040 -c 2 -a 0 -i 25 -k AGT
h -t 1.201326129 -s 0 -d -1 -p tcp -e 1040 -c 2 -a 0 -i 25 -k AGT
+ -t 1.201326129 -s 0 -d 1 -p tcp -e 1060 -c 2 -a 0 -i 25 -k RTR 
- -t 1.201326129 -s 0 -d 1 -p tcp -e 1060 -c 2 -a 0 -i 25 -k RTR
h -t 1.201326129 -s 0 -d 1 -p tcp -e 1060 -c 2 -a 0 -i 25 -k RTR
+ -t 1.201326129 -s 0 -d -1 -p tcp -e 1040 -c 2 -a 0 -i 26 -k AGT 
- -t 1.201326129 -s 0 -d -1 -p tcp -e 1040 -c 2 -a 0 -i 26 -k AGT
h -t 1.201326129 -s 0 -d -1 -p tcp -e 1040 -c 2 -a 0 -i 26 -k AGT
+ -t 1.201326129 -s 0 -d 1 -p tcp -e 1060 -c 2 -a 0 -i 26 -k RTR 
- -t 1.201326129 -s 0 -d 1 -p tcp -e 1060 -c 2 -a 0 -i 26 -k RTR
h -t 1.201326129 -s 0 -d 1 -p tcp -e 1060 -c 2 -a 0 -i 26 -k RTR
r -t 1.201615148 -s 1 -d -1 -p ACK -e 38 -c 2 -a 0 -i 0 -k MAC
+ -t 1.201785129 -s 0 -d -1 -p RTS -e 44 -c 2 -a 0 -i 0 -k MAC 
- -t 1.201785129 -s 0 -d -1 -p RTS -e 44 -c 2 -a 0 -i 0 -k MAC
h -t 1.201785129 -s 0 -d -1 -p RTS -e 44 -c 2 -a 0 -i 0 -k MAC
r -t 1.202137148 -s 1 -d -1 -p RTS -e 44 -c 2 -a 0 -i 0 -k MAC