s 0.029290548 _1_ RTR  --- 0 message 32 [0 0 0 0] ------- [1:255 -1:255 32 0] 
s 0.029365548 _1_ MAC  --- 0 message 90 [0 ffffffff 1 800] ------- [1:255 -1:255 32 0] 
r 0.030085548 _0_ MAC  --- 0 message 32 [0 ffffffff 1 800] ------- [1:255 -1:255 32 0] 
r 0.030110548 _0_ RTR  --- 0 message 32 [0 ffffffff 1 800] ------- [1:255 -1:255 32 0] 
M 1.00000 0 (0.00, 0.00, 0.00), (310.00, 10.00), 20.00
M 1.00000 1 (0.00, 0.00, 0.00), (10.00, 310.00), 20.00
s 1.000000000 _0_ AGT  --- 1 tcp 40 [0 0 0 0] ------- [0:0 1:0 32 0] [0 0] 0 0
r 1.000000000 _0_ RTR  --- 1 tcp 40 [0 0 0 0] ------- [0:0 1:0 32 0] [0 0] 0 0
s 1.000000000 _0_ RTR  --- 1 tcp 60 [0 0 0 0] ------- [0:0 1:0 32 1] [0 0] 0 0
s 1.000255000 _0_ MAC  --- 0 ARP 86 [0 ffffffff 0 806] ------- [REQUEST 0/0 0/1]
r 1.000943000 _1_ MAC  --- 0 ARP 28 [0 ffffffff 0 806] ------- [REQUEST 0/0 0/1]
s 1.001358000 _1_ MAC  --- 0 RTS 44 [52e 0 1 0] 
r 1.001710000 _0_ MAC  --- 0 RTS 44 [52e 0 1 0] 
s 1.001720000 _0_ MAC  --- 0 CTS 38 [3f4 1 0 0] 
r 1.002024000 _1_ MAC  --- 0 CTS 38 [3f4 1 0 0] 
s 1.002034000 _1_ MAC  --- 0 ARP 86 [13a 0 1 806] ------- [REPLY 1/1 0/0]
r 1.002722000 _0_ MAC  --- 0 ARP 28 [13a 0 1 806] ------- [REPLY 1/1 0/0]
s 1.002732000 _0_ MAC  --- 0 ACK 38 [0 1 0 0] 
r 1.003036001 _1_ MAC  --- 0 ACK 38 [0 1 0 0] 
s 1.003346000 _0_ MAC  --- 0 RTS 44 [62e 1 0 0] 
r 1.003698001 _1_ MAC  --- 0 RTS 44 [62e 1 0 0] 
s 1.003708001 _1_ MAC  --- 0 CTS 38 [4f4 0 0 0] 
r 1.004012001 _0_ MAC  --- 0 CTS 38 [4f4 0 0 0] 
s 1.004022001 _0_ MAC  --- 1 tcp 118 [13a 1 0 800] ------- [0:0 1:0 32 1] [0 0] 0 0
r 1.004966001 _1_ MAC  --- 1 tcp 60 [13a 1 0 800] ------- [0:0 1:0 32 1] [0 0] 1 0
s 1.004976001 _1_ MAC  --- 0 ACK 38 [0 0 0 0] 
r 1.004991001 _1_ AGT  --- 1 tcp 60 [13a 1 0 800] ------- [0:0 1:0 32 1] [0 0] 1 0
s 1.004991001 _1_ AGT  --- 2 ack 40 [0 0 0 0] ------- [1:0 0:0 32 0] [0 0] 0 0
r 1.004991001 _1_ RTR  --- 2 ack 40 [0 0 0 0] ------- [1:0 0:0 32 0] [0 0] 0 0
r 1.005280002 _0_ MAC  --- 0 ACK 38 [0 0 0 0] 
s 1.112189378 _0_ RTR  --- 3 message 32 [0 0 0 0] ------- [0:255 -1:255 32 0] 
s 1.112624378 _0_ MAC  --- 3 message 90 [0 ffffffff 0 800] ------- [0:255 -1:255 32 0] 
r 1.113344388 _1_ MAC  --- 3 message 32 [0 ffffffff 0 800] ------- [0:255 -1:255 32 0] 
r 1.113369388 _1_ RTR  --- 3 message 32 [0 ffffffff 0 800] ------- [0:255 -1:255 32 0] 
s 1.113369388 _1_ RTR  --- 2 ack 80 [0 0 0 0] ------- [1:0 0:0 32 0] [0 0] 0 0
s 1.113604388 _1_ MAC  --- 0 RTS 44 [6ce 0 1 0] 
r 1.113956398 _0_ MAC  --- 0 RTS 44 [6ce 0 1 0] 
s 1.113966398 _0_ MAC  --- 0 CTS 38 [594 1 0 0] 
r 1.114270409 _1_ MAC  --- 0 CTS 38 [594 1 0 0] 
s 1.114280409 _1_ MAC  --- 2 ack 138 [13a 0 1 800] ------- [1:0 0:0 32 0] [0 0] 0 0
r 1.115384419 _0_ MAC  --- 2 ack 80 [13a 0 1 800] ------- [1:0 0:0 32 0] [0 0] 1 0
s 1.115394419 _0_ MAC  --- 0 ACK 38 [0 1 0 0] 
r 1.115409419 _0_ AGT  --- 2 ack 80 [13a 0 1 800] ------- [1:0 0:0 32 0] [0 0] 1 0
s 1.115409419 _0_ AGT  --- 4 tcp 1040 [0 0 0 0] ------- [0:0 1:0 32 0] [1 0] 0 0
r 1.115409419 _0_ RTR  --- 4 tcp 1040 [0 0 0 0] ------- [0:0 1:0 32 0] [1 0] 0 0
s 1.115409419 _0_ RTR  --- 4 tcp 1060 [0 0 0 0] ------- [0:0 1:0 32 1] [1 0] 0 0
s 1.115409419 _0_ AGT  --- 5 tcp 1040 [0 0 0 0] ------- [0:0 1:0 32 0] [2 0] 0 0
r 1.115409419 _0_ RTR  --- 5 tcp 1040 [0 0 0 0] ------- [0:0 1:0 32 0] [2 0] 0 0
s 1.115409419 _0_ RTR  --- 5 tcp 1060 [0 0 0 0] ------- [0:0 1:0 32 1] [2 0] 0 0
r 1.115698430 _1_ MAC  --- 0 ACK 38 [0 1 0 0] 
s 1.115788419 _0_ MAC  --- 0 RTS 44 [256e 1 0 0] 
r 1.116140430 _1_ MAC  --- 0 RTS 44 [256e 1 0 0] 
s 1.116150430 _1_ MAC  --- 0 CTS 38 [2434 0 0 0] 
r 1.116454440 _0_ MAC  --- 0 CTS 38 [2434 0 0 0] 
s 1.116464440 _0_ MAC  --- 4 tcp 1118 [13a 1 0 800] ------- [0:0 1:0 32 1] [1 0] 0 0
r 1.125408451 _1_ MAC  --- 4 tcp 1060 [13a 1 0 800] ------- [0:0 1:0 32 1] [1 0] 1 0
s 1.125418451 _1_ MAC  --- 0 ACK 38 [0 0 0 0] 
r 1.125433451 _1_ AGT  --- 4 tcp 1060 [13a 1 0 800] ------- [0:0 1:0 32 1] [1 0] 1 0
s 1.125433451 _1_ AGT  --- 6 ack 40 [0 0 0 0] ------- [1:0 0:0 32 0] [1 0] 0 0
r 1.125433451 _1_ RTR  --- 6 ack 40 [0 0 0 0] ------- [1:0 0:0 32 0] [1 0] 0 0
s 1.125433451 _1_ RTR  --- 6 ack 60 [0 0 0 0] ------- [1:0 0:0 32 0] [1 0] 0 0
r 1.125722462 _0_ MAC  --- 0 ACK 38 [0 0 0 0] 
s 1.126112462 _0_ MAC  --- 0 RTS 44 [256e 1 0 0] 
r 1.126464474 _1_ MAC  --- 0 RTS 44 [256e 1 0 0] 
s 1.126474474 _1_ MAC  --- 0 CTS 38 [2434 0 0 0] 
r 1.126778485 _0_ MAC  --- 0 CTS 38 [2434 0 0 0] 
s 1.126788485 _0_ MAC  --- 5 tcp 1118 [13a 1 0 800] ------- [0:0 1:0 32 1] [2 0] 0 0
r 1.135732497 _1_ MAC  --- 5 tcp 1060 [13a 1 0 800] ------- [0:0 1:0 32 1] [2 0] 1 0
s 1.135742497 _1_ MAC  --- 0 ACK 38 [0 0 0 0] 
r 1.135757497 _1_ AGT  --- 5 tcp 1060 [13a 1 0 800] ------- [0:0 1:0 32 1] [2 0] 1 0
s 1.135757497 _1_ AGT  --- 7 ack 40 [0 0 0 0] ------- [1:0 0:0 32 0] [2 0] 0 0
r 1.135757497 _1_ RTR  --- 7 ack 40 [0 0 0 0] ------- [1:0 0:0 32 0] [2 0] 0 0
s 1.135757497 _1_ RTR  --- 7 ack 60 [0 0 0 0] ------- [1:0 0:0 32 0] [2 0] 0 0
r 1.136046509 _0_ MAC  --- 0 ACK 38 [0 0 0 0] 
s 1.136196497 _1_ MAC  --- 0 RTS 44 [62e 0 1 0] 
r 1.136548509 _0_ MAC  --- 0 RTS 44 [62e 0 1 0] 
s 1.136558509 _0_ MAC  --- 0 CTS 38 [4f4 1 0 0] 
r 1.136862522 _1_ MAC  --- 0 CTS 38 [4f4 1 0 0] 
s 1.136872522 _1_ MAC  --- 6 ack 118 [13a 0 1 800] ------- [1:0 0:0 32 0] [1 0] 0 0
r 1.137816534 _0_ MAC  --- 6 ack 60 [13a 0 1 800] ------- [1:0 0:0 32 0] [1 0] 1 0
s 1.137826534 _0_ MAC  --- 0 ACK 38 [0 1 0 0] 
r 1.137841534 _0_ AGT  --- 6 ack 60 [13a 0 1 800] ------- [1:0 0:0 32 0] [1 0] 1 0
s 1.137841534 _0_ AGT  --- 8 tcp 1040 [0 0 0 0] ------- [0:0 1:0 32 0] [3 0] 0 0
r 1.137841534 _0_ RTR  --- 8 tcp 1040 [0 0 0 0] ------- [0:0 1:0 32 0] [3 0] 0 0
s 1.137841534 _0_ RTR  --- 8 tcp 1060 [0 0 0 0] ------- [0:0 1:0 32 1] [3 0] 0 0
s 1.137841534 _0_ AGT  --- 9 tcp 1040 [0 0 0 0] ------- [0:0 1:0 32 0] [4 0] 0 0
r 1.137841534 _0_ RTR  --- 9 tcp 1040 [0 0 0 0] ------- [0:0 1:0 32 0] [4 0] 0 0
s 1.137841534 _0_ RTR  --- 9 tcp 1060 [0 0 0 0] ------- [0:0 1:0 32 1] [4 0] 0 0
r 1.138130547 _1_ MAC  --- 0 ACK 38 [0 1 0 0] 
s 1.138380547 _1_ MAC  --- 0 RTS 44 [62e 0 1 0] 
r 1.138732559 _0_ MAC  --- 0 RTS 44 [62e 0 1 0] 
s 1.138742559 _0_ MAC  --- 0 CTS 38 [4f4 1 0 0] 
r 1.139046572 _1_ MAC  --- 0 CTS 38 [4f4 1 0 0] 
s 1.139056572 _1_ MAC  --- 7 ack 118 [13a 0 1 800] ------- [1:0 0:0 32 0] [2 0] 0 0
r 1.140000585 _0_ MAC  --- 7 ack 60 [13a 0 1 800] ------- [1:0 0:0 32 0] [2 0] 1 0
s 1.140010585 _0_ MAC  --- 0 ACK 38 [0 1 0 0] 
r 1.140025585 _0_ AGT  --- 7 ack 60 [13a 0 1 800] ------- [1:0 0:0 32 0] [2 0] 1 0
s 1.140025585 _0_ AGT  --- 10 tcp 1040 [0 0 0 0] ------- [0:0 1:0 32 0] [5 0] 0 0
r 1.140025585 _0_ RTR  --- 10 tcp 1040 [0 0 0 0] ------- [0:0 1:0 32 0] [5 0] 0 0
s 1.140025585 _0_ RTR  --- 10 tcp 1060 [0 0 0 0] ------- [0:0 1:0 32 1] [5 0] 0 0
s 1.140025585 _0_ AGT  --- 11 tcp 1040 [0 0 0 0] ------- [0:0 1:0 32 0] [6 0] 0 0
r 1.140025585 _0_ RTR  --- 11 tcp 1040 [0 0 0 0] ------- [0:0 1:0 32 0] [6 0] 0 0
s 1.140025585 _0_ RTR  --- 11 tcp 1060 [0 0 0 0] ------- [0:0 1:0 32 1] [6 0] 0 0
r 1.140314597 _1_ MAC  --- 0 ACK 38 [0 1 0 0] 
s 1.140384585 _0_ MAC  --- 0 RTS 44 [256e 1 0 0] 
r 1.140736597 _1_ MAC  --- 0 RTS 44 [256e 1 0 0] 
s 1.140746597 _1_ MAC  --- 0 CTS 38 [2434 0 0 0] 
r 1.141050610 _0_ MAC  --- 0 CTS 38 [2434 0 0 0] 
s 1.141060610 _0_ MAC  --- 8 tcp 1118 [13a 1 0 800] ------- [0:0 1:0 32 1] [3 0] 0 0
r 1.150004623 _1_ MAC  --- 8 tcp 1060 [13a 1 0 800] ------- [0:0 1:0 32 1] [3 0] 1 0
s 1.150014623 _1_ MAC  --- 0 ACK 38 [0 0 0 0] 
r 1.150029623 _1_ AGT  --- 8 tcp 1060 [13a 1 0 800] ------- [0:0 1:0 32 1] [3 0] 1 0
s 1.150029623 _1_ AGT  --- 12 ack 40 [0 0 0 0] ------- [1:0 0:0 32 0] [3 0] 0 0
r 1.150029623 _1_ RTR  --- 12 ack 40 [0 0 0 0] ------- [1:0 0:0 32 0] [3 0] 0 0
s 1.150029623 _1_ RTR  --- 12 ack 60 [0 0 0 0] ------- [1:0 0:0 32 0] [3 0] 0 0
r 1.150318637 _0_ MAC  --- 0 ACK 38 [0 0 0 0] 
s 1.150388637 _0_ MAC  --- 0 RTS 44 [256e 1 0 0] 
r 1.150740651 _1_ MAC  --- 0 RTS 44 [256e 1 0 0] 
s 1.150750651 _1_ MAC  --- 0 CTS 38 [2434 0 0 0] 
r 1.151054664 _0_ MAC  --- 0 CTS 38 [2434 0 0 0] 
s 1.151064664 _0_ MAC  --- 9 tcp 1118 [13a 1 0 800] ------- [0:0 1:0 32 1] [4 0] 0 0
r 1.160008678 _1_ MAC  --- 9 tcp 1060 [13a 1 0 800] ------- [0:0 1:0 32 1] [4 0] 1 0
s 1.160018678 _1_ MAC  --- 0 ACK 38 [0 0 0 0] 
r 1.160033678 _1_ AGT  --- 9 tcp 1060 [13a 1 0 800] ------- [0:0 1:0 32 1] [4 0] 1 0
s 1.160033678 _1_ AGT  --- 13 ack 40 [0 0 0 0] ------- [1:0 0:0 32 0] [4 0] 0 0
r 1.160033678 _1_ RTR  --- 13 ack 40 [0 0 0 0] ------- [1:0 0:0 32 0] [4 0] 0 0
s 1.160033678 _1_ RTR  --- 13 ack 60 [0 0 0 0] ------- [1:0 0:0 32 0] [4 0] 0 0
r 1.160322693 _0_ MAC  --- 0 ACK 38 [0 0 0 0] 
s 1.160552678 _1_ MAC  --- 0 RTS 44 [62e 0 1 0] 
r 1.160904693 _0_ MAC  --- 0 RTS 44 [62e 0 1 0] 
s 1.160914693 _0_ MAC  --- 0 CTS 38 [4f4 1 0 0] 
r 1.161218707 _1_ MAC  --- 0 CTS 38 [4f4 1 0 0] 
s 1.161228707 _1_ MAC  --- 12 ack 118 [13a 0 1 800] ------- [1:0 0:0 32 0] [3 0] 0 0
r 1.162172722 _0_ MAC  --- 12 ack 60 [13a 0 1 800] ------- [1:0 0:0 32 0] [3 0] 1 0
s 1.162182722 _0_ MAC  --- 0 ACK 38 [0 1 0 0] 
r 1.162197722 _0_ AGT  --- 12 ack 60 [13a 0 1 800] ------- [1:0 0:0 32 0] [3 0] 1 0
s 1.162197722 _0_ AGT  --- 14 tcp 1040 [0 0 0 0] ------- [0:0 1:0 32 0] [7 0] 0 0
r 1.162197722 _0_ RTR  --- 14 tcp 1040 [0 0 0 0] ------- [0:0 1:0 32 0] [7 0] 0 0
s 1.162197722 _0_ RTR  --- 14 tcp 1060 [0 0 0 0] ------- [0:0 1:0 32 1] [7 0] 0 0
s 1.162197722 _0_ AGT  --- 15 tcp 1040 [0 0 0 0] ------- [0:0 1:0 32 0] [8 0] 0 0
r 1.162197722 _0_ RTR  --- 15 tcp 1040 [0 0 0 0] ------- [0:0 1:0 32 0] [8 0] 0 0
s 1.162197722 _0_ RTR  --- 15 tcp 1060 [0 0 0 0] ------- [0:0 1:0 32 1] [8 0] 0 0
r 1.162486737 _1_ MAC  --- 0 ACK 38 [0 1 0 0] 
s 1.162596722 _0_ MAC  --- 0 RTS 44 [256e 1 0 0] 
r 1.162948737 _1_ MAC  --- 0 RTS 44 [256e 1 0 0] 
s 1.162958737 _1_ MAC  --- 0 CTS 38 [2434 0 0 0] 
r 1.163262752 _0_ MAC  --- 0 CTS 38 [2434 0 0 0] 
s 1.163272752 _0_ MAC  --- 10 tcp 1118 [13a 1 0 800] ------- [0:0 1:0 32 1] [5 0] 0 0
r 1.172216767 _1_ MAC  --- 10 tcp 1060 [13a 1 0 800] ------- [0:0 1:0 32 1] [5 0] 1 0
s 1.172226767 _1_ MAC  --- 0 ACK 38 [0 0 0 0] 
r 1.172241767 _1_ AGT  --- 10 tcp 1060 [13a 1 0 800] ------- [0:0 1:0 32 1] [5 0] 1 0
s 1.172241767 _1_ AGT  --- 16 ack 40 [0 0 0 0] ------- [1:0 0:0 32 0] [5 0] 0 0
r 1.172241767 _1_ RTR  --- 16 ack 40 [0 0 0 0] ------- [1:0 0:0 32 0] [5 0] 0 0
s 1.172241767 _1_ RTR  --- 16 ack 60 [0 0 0 0] ------- [1:0 0:0 32 0] [5 0] 0 0
r 1.172530782 _0_ MAC  --- 0 ACK 38 [0 0 0 0] 
s 1.172760782 _0_ MAC  --- 0 RTS 44 [256e 1 0 0] 
r 1.173112798 _1_ MAC  --- 0 RTS 44 [256e 1 0 0] 
s 1.173122798 _1_ MAC  --- 0 CTS 38 [2434 0 0 0] 
r 1.173426814 _0_ MAC  --- 0 CTS 38 [2434 0 0 0] 
s 1.173436814 _0_ MAC  --- 11 tcp 1118 [13a 1 0 800] ------- [0:0 1:0 32 1] [6 0] 0 0
r 1.182380830 _1_ MAC  --- 11 tcp 1060 [13a 1 0 800] ------- [0:0 1:0 32 1] [6 0] 1 0
s 1.182390830 _1_ MAC  --- 0 ACK 38 [0 0 0 0] 
r 1.182405830 _1_ AGT  --- 11 tcp 1060 [13a 1 0 800] ------- [0:0 1:0 32 1] [6 0] 1 0
s 1.182405830 _1_ AGT  --- 17 ack 40 [0 0 0 0] ------- [1:0 0:0 32 0] [6 0] 0 0
r 1.182405830 _1_ RTR  --- 17 ack 40 [0 0 0 0] ------- [1:0 0:0 32 0] [6 0] 0 0
s 1.182405830 _1_ RTR  --- 17 ack 60 [0 0 0 0] ------- [1:0 0:0 32 0] [6 0] 0 0
r 1.182694846 _0_ MAC  --- 0 ACK 38 [0 0 0 0] 
s 1.182944830 _1_ MAC  --- 0 RTS 44 [62e 0 1 0] 
r 1.183296846 _0_ MAC  --- 0 RTS 44 [62e 0 1 0] 
s 1.183306846 _0_ MAC  --- 0 CTS 38 [4f4 1 0 0] 
r 1.183610863 _1_ MAC  --- 0 CTS 38 [4f4 1 0 0] 
s 1.183620863 _1_ MAC  --- 13 ack 118 [13a 0 1 800] ------- [1:0 0:0 32 0] [4 0] 0 0
r 1.184564880 _0_ MAC  --- 13 ack 60 [13a 0 1 800] ------- [1:0 0:0 32 0] [4 0] 1 0
s 1.184574880 _0_ MAC  --- 0 ACK 38 [0 1 0 0] 
r 1.184589880 _0_ AGT  --- 13 ack 60 [13a 0 1 800] ------- [1:0 0:0 32 0] [4 0] 1 0
s 1.184589880 _0_ AGT  --- 18 tcp 1040 [0 0 0 0] ------- [0:0 1:0 32 0] [9 0] 0 0
r 1.184589880 _0_ RTR  --- 18 tcp 1040 [0 0 0 0] ------- [0:0 1:0 32 0] [9 0] 0 0
s 1.184589880 _0_ RTR  --- 18 tcp 1060 [0 0 0 0] ------- [0:0 1:0 32 1] [9 0] 0 0
s 1.184589880 _0_ AGT  --- 19 tcp 1040 [0 0 0 0] ------- [0:0 1:0 32 0] [10 0] 0 0
r 1.184589880 _0_ RTR  --- 19 tcp 1040 [0 0 0 0] ------- [0:0 1:0 32 0] [10 0] 0 0
s 1.184589880 _0_ RTR  --- 19 tcp 1060 [0 0 0 0] ------- [0:0 1:0 32 1] [10 0] 0 0
r 1.184878897 _1_ MAC  --- 0 ACK 38 [0 1 0 0] 
s 1.185308880 _0_ MAC  --- 0 RTS 44 [256e 1 0 0] 
r 1.185660897 _1_ MAC  --- 0 RTS 44 [256e 1 0 0] 
s 1.185670897 _1_ MAC  --- 0 CTS 38 [2434 0 0 0] 
r 1.185974914 _0_ MAC  --- 0 CTS 38 [2434 0 0 0] 
s 1.185984914 _0_ MAC  --- 14 tcp 1118 [13a 1 0 800] ------- [0:0 1:0 32 1] [7 0] 0 0
r 1.194928931 _1_ MAC  --- 14 tcp 1060 [13a 1 0 800] ------- [0:0 1:0 32 1] [7 0] 1 0
s 1.194938931 _1_ MAC  --- 0 ACK 38 [0 0 0 0] 
r 1.194953931 _1_ AGT  --- 14 tcp 1060 [13a 1 0 800] ------- [0:0 1:0 32 1] [7 0] 1 0
s 1.194953931 _1_ AGT  --- 20 ack 40 [0 0 0 0] ------- [1:0 0:0 32 0] [7 0] 0 0
r 1.194953931 _1_ RTR  --- 20 ack 40 [0 0 0 0] ------- [1:0 0:0 32 0] [7 0] 0 0
s 1.194953931 _1_ RTR  --- 20 ack 60 [0 0 0 0] ------- [1:0 0:0 32 0] [7 0] 0 0
r 1.195242948 _0_ MAC  --- 0 ACK 38 [0 0 0 0] 
s 1.195312931 _1_ MAC  --- 0 RTS 44 [62e 0 1 0] 
r 1.195664948 _0_ MAC  --- 0 RTS 44 [62e 0 1 0] 
s 1.195674948 _0_ MAC  --- 0 CTS 38 [4f4 1 0 0] 
r 1.195978966 _1_ MAC  --- 0 CTS 38 [4f4 1 0 0] 
s 1.195988966 _1_ MAC  --- 16 ack 118 [13a 0 1 800] ------- [1:0 0:0 32 0] [5 0] 0 0
r 1.196932984 _0_ MAC  --- 16 ack 60 [13a 0 1 800] ------- [1:0 0:0 32 0] [5 0] 1 0
s 1.196942984 _0_ MAC  --- 0 ACK 38 [0 1 0 0] 
r 1.196957984 _0_ AGT  --- 16 ack 60 [13a 0 1 800] ------- [1:0 0:0 32 0] [5 0] 1 0
s 1.196957984 _0_ AGT  --- 21 tcp 1040 [0 0 0 0] ------- [0:0 1:0 32 0] [11 0] 0 0
r 1.196957984 _0_ RTR  --- 21 tcp 1040 [0 0 0 0] ------- [0:0 1:0 32 0] [11 0] 0 0
s 1.196957984 _0_ RTR  --- 21 tcp 1060 [0 0 0 0] ------- [0:0 1:0 32 1] [11 0] 0 0
s 1.196957984 _0_ AGT  --- 22 tcp 1040 [0 0 0 0] ------- [0:0 1:0 32 0] [12 0] 0 0
r 1.196957984 _0_ RTR  --- 22 tcp 1040 [0 0 0 0] ------- [0:0 1:0 32 0] [12 0] 0 0
s 1.196957984 _0_ RTR  --- 22 tcp 1060 [0 0 0 0] ------- [0:0 1:0 32 1] [12 0] 0 0
r 1.197247002 _1_ MAC  --- 0 ACK 38 [0 1 0 0] 
s 1.197657002 _1_ MAC  --- 0 RTS 44 [62e 0 1 0] 
r 1.198009020 _0_ MAC  --- 0 RTS 44 [62e 0 1 0] 
s 1.198019020 _0_ MAC  --- 0 CTS 38 [4f4 1 0 0] 
r 1.198323038 _1_ MAC  --- 0 CTS 38 [4f4 1 0 0] 
s 1.198333038 _1_ MAC  --- 17 ack 118 [13a 0 1 800] ------- [1:0 0:0 32 0] [6 0] 0 0
r 1.199277056 _0_ MAC  --- 17 ack 60 [13a 0 1 800] ------- [1:0 0:0 32 0] [6 0] 1 0
s 1.199287056 _0_ MAC  --- 0 ACK 38 [0 1 0 0] 
r 1.199302056 _0_ AGT  --- 17 ack 60 [13a 0 1 800] ------- [1:0 0:0 32 0] [6 0] 1 0
s 1.199302056 _0_ AGT  --- 23 tcp 1040 [0 0 0 0] ------- [0:0 1:0 32 0] [13 0] 0 0
r 1.199302056 _0_ RTR  --- 23 tcp 1040 [0 0 0 0] ------- [0:0 1:0 32 0] [13 0] 0 0
s 1.199302056 _0_ RTR  --- 23 tcp 1060 [0 0 0 0] ------- [0:0 1:0 32 1] [13 0] 0 0
s 1.199302056 _0_ AGT  --- 24 tcp 1040 [0 0 0 0] ------- [0:0 1:0 32 0] [14 0] 0 0
r 1.199302056 _0_ RTR  --- 24 tcp 1040 [0 0 0 0] ------- [0:0 1:0 32 0] [14 0] 0 0
s 1.199302056 _0_ RTR  --- 24 tcp 1060 [0 0 0 0] ------- [0:0 1:0 32 1] [14 0] 0 0
r 1.199591075 _1_ MAC  --- 0 ACK 38 [0 1 0 0] 
s 1.199681075 _1_ MAC  --- 0 RTS 44 [62e 0 1 0] 
r 1.200033093 _0_ MAC  --- 0 RTS 44 [62e 0 1 0] 
s 1.200043093 _0_ MAC  --- 0 CTS 38 [4f4 1 0 0] 
r 1.200347111 _1_ MAC  --- 0 CTS 38 [4f4 1 0 0] 
s 1.200357111 _1_ MAC  --- 20 ack 118 [13a 0 1 800] ------- [1:0 0:0 32 0] [7 0] 0 0
r 1.201301129 _0_ MAC  --- 20 ack 60 [13a 0 1 800] ------- [1:0 0:0 32 0] [7 0] 1 0
s 1.201311129 _0_ MAC  --- 0 ACK 38 [0 1 0 0] 
r 1.201326129 _0_ AGT  --- 20 ack 60 [13a 0 1 800] ------- [1:0 0:0 32 0] [7 0] 1 0
s 1.201326129 _0_ AGT  --- 25 tcp 1040 [0 0 0 0] ------- [0:0 1:0 32 0] [15 0] 0 0
r 1.201326129 _0_ RTR  --- 25 tcp 1040 [0 0 0 0] ------- [0:0 1:0 32 0] [15 0] 0 0
s 1.201326129 _0_ RTR  --- 25 tcp 1060 [0 0 0 0] ------- [0:0 1:0 32 1] [15 0] 0 0
s 1.201326129 _0_ AGT  --- 26 tcp 1040 [0 0 0 0] ------- [0:0 1:0 32 0] [16 0] 0 0
r 1.201326129 _0_ RTR  --- 26 tcp 1040 [0 0 0 0] ------- [0:0 1:0 32 0] [16 0] 0 0
s 1.201326129 _0_ RTR  --- 26 tcp 1060 [0 0 0 0] ------- [0:0 1:0 32 1] [16 0] 0 0
r 1.201615148 _1_ MAC  --- 0 ACK 38 [0 1 0 0] 
s 1.201785129 _0_ MAC  --- 0 RTS 44 [256e 1 0 0] 
r 1.202137148 _1_ MAC  --- 0 RTS 44 [256e 1 0 0] 
s 1.202147148 _1_ MAC  --- 0 CTS 38 [2434 0 0 0] 
r 1.202451166 _0_ MAC  --- 0 CTS 38 [2434 0 0 0] 
s 1.202461166 _0_ MAC  --- 15 tcp 1118 [13a 1 0 800] ------- [0:0 1:0 32 1] [8 0] 0 0
r 1.211405185 _1_ MAC  --- 15 tcp 1060 [13a 1 0 800] ------- [0:0 1:0 32 1] [8 0] 1 0
s 1.211415185 _1_ MAC  --- 0 ACK 38 [0 0 0 0] 
r 1.211430185 _1_ AGT  --- 15 tcp 1060 [13a 1 0 800] ------- [0:0 1:0 32 1] [8 0] 1 0
s 1.211430185 _1_ AGT  --- 27 ack 40 [0 0 0 0] ------- [1:0 0:0 32 0] [8 0] 0 0
r 1.211430185 _1_ RTR  --- 27 ack 40 [0 0 0 0] ------- [1:0 0:0 32 0] [8 0] 0 0
s 1.211430185 _1_ RTR  --- 27 ack 60 [0 0 0 0] ------- [1:0 0:0 32 0] [8 0] 0 0
r 1.211719204 _0_ MAC  --- 0 ACK 38 [0 0 0 0] 
s 1.211949185 _1_ MAC  --- 0 RTS 44 [62e 0 1 0] 
r 1.212301204 _0_ MAC  --- 0 RTS 44 [62e 0 1 0] 
s 1.212311204 _0_ MAC  --- 0 CTS 38 [4f4 1 0 0] 
r 1.212615223 _1_ MAC  --- 0 CTS 38 [4f4 1 0 0] 
s 1.212625223 _1_ MAC  --- 27 ack 118 [13a 0 1 800] ------- [1:0 0:0 32 0] [8 0] 0 0
r 1.213569243 _0_ MAC  --- 27 ack 60 [13a 0 1 800] ------- [1:0 0:0 32 0] [8 0] 1 0
s 1.213579243 _0_ MAC  --- 0 ACK 38 [0 1 0 0] 
r 1.213594243 _0_ AGT  --- 27 ack 60 [13a 0 1 800] ------- [1:0 0:0 32 0] [8 0] 1 0
s 1.213594243 _0_ AGT  --- 28 tcp 1040 [0 0 0 0] ------- [0:0 1:0 32 0] [17 0] 0 0
r 1.213594243 _0_ RTR  --- 28 tcp 1040 [0 0 0 0] ------- [0:0 1:0 32 0] [17 0] 0 0
s 1.213594243 _0_ RTR  --- 28 tcp 1060 [0 0 0 0] ------- [0:0 1:0 32 1] [17 0] 0 0
s 1.213594243 _0_ AGT  --- 29 tcp 1040 [0 0 0 0] ------- [0:0 1:0 32 0] [18 0] 0 0
r 1.213594243 _0_ RTR  --- 29 tcp 1040 [0 0 0 0] ------- [0:0 1:0 32 0] [18 0] 0 0
s 1.213594243 _0_ RTR  --- 29 tcp 1060 [0 0 0 0] ------- [0:0 1:0 32 1] [18 0] 0 0
r 1.213883262 _1_ MAC  --- 0 ACK 38 [0 1 0 0] 
s 1.214113243 _0_ MAC  --- 0 RTS 44 [256e 1 0 0] 
r 1.214465262 _1_ MAC  --- 0 RTS 44 [256e 1 0 0] 
s 1.214475262 _1_ MAC  --- 0 CTS 38 [2434 0 0 0] 
r 1.214779282 _0_ MAC  --- 0 CTS 38 [2434 0 0 0] 
s 1.214789282 _0_ MAC  --- 18 tcp 1118 [13a 1 0 800] ------- [0:0 1:0 32 1] [9 0] 0 0
r 1.223733301 _1_ MAC  --- 18 tcp 1060 [13a 1 0 800] ------- [0:0 1:0 32 1] [9 0] 1 0
s 1.223743301 _1_ MAC  --- 0 ACK 38 [0 0 0 0] 
r 1.223758301 _1_ AGT  --- 18 tcp 1060 [13a 1 0 800] ------- [0:0 1:0 32 1] [9 0] 1 0
s 1.223758301 _1_ AGT  --- 30 ack 40 [0 0 0 0] ------- [1:0 0:0 32 0] [9 0] 0 0
r 1.223758301 _1_ RTR  --- 30 ack 40 [0 0 0 0] ------- [1:0 0:0 32 0] [9 0] 0 0
s 1.223758301 _1_ RTR  --- 30 ack 60 [0 0 0 0] ------- [1:0 0:0 32 0] [9 0] 0 0
r 1.224047322 _0_ MAC  --- 0 ACK 38 [0 0 0 0] 
s 1.224177301 _1_ MAC  --- 0 RTS 44 [62e 0 1 0] 
r 1.224529322 _0_ MAC  --- 0 RTS 44 [62e 0 1 0] 
s 1.224539322 _0_ MAC  --- 0 CTS 38 [4f4 1 0 0] 
r 1.224843342 _1_ MAC  --- 0 CTS 38 [4f4 1 0 0] 
s 1.224853342 _1_ MAC  --- 30 ack 118 [13a 0 1 800] ------- [1:0 0:0 32 0] [9 0] 0 0
r 1.225797363 _0_ MAC  --- 30 ack 60 [13a 0 1 800] ------- [1:0 0:0 32 0] [9 0] 1 0
s 1.225807363 _0_ MAC  --- 0 ACK 38 [0 1 0 0] 
r 1.225822363 _0_ AGT  --- 30 ack 60 [13a 0 1 800] ------- [1:0 0:0 32 0] [9 0] 1 0
s 1.225822363 _0_ AGT  --- 31 tcp 1040 [0 0 0 0] ------- [0:0 1:0 32 0] [19 0] 0 0
r 1.225822363 _0_ RTR  --- 31 tcp 1040 [0 0 0 0] ------- [0:0 1:0 32 0] [19 0] 0 0
s 1.225822363 _0_ RTR  --- 31 tcp 1060 [0 0 0 0] ------- [0:0 1:0 32 1] [19 0] 0 0
s 1.225822363 _0_ AGT  --- 32 tcp 1040 [0 0 0 0] ------- [0:0 1:0 32 0] [20 0] 0 0
r 1.225822363 _0_ RTR  --- 32 tcp 1040 [0 0 0 0] ------- [0:0 1:0 32 0] [20 0] 0 0
s 1.225822363 _0_ RTR  --- 32 tcp 1060 [0 0 0 0] ------- [0:0 1:0 32 1] [20 0] 0 0
r 1.226111383 _1_ MAC  --- 0 ACK 38 [0 1 0 0] 
s 1.226361363 _0_ MAC  --- 0 RTS 44 [256e 1 0 0] 
r 1.226713383 _1_ MAC  --- 0 RTS 44 [256e 1 0 0] 
s 1.226723383 _1_ MAC  --- 0 CTS 38 [2434 0 0 0] 
r 1.227027404 _0_ MAC  --- 0 CTS 38 [2434 0 0 0] 
s 1.227037404 _0_ MAC  --- 19 tcp 1118 [13a 1 0 800] ------- [0:0 1:0 32 1] [10 0] 0 0
r 1.235981425 _1_ MAC  --- 19 tcp 1060 [13a 1 0 800] ------- [0:0 1:0 32 1] [10 0] 1 0
s 1.235991425 _1_ MAC  --- 0 ACK 38 [0 0 0 0] 
r 1.236006425 _1_ AGT  --- 19 tcp 1060 [13a 1 0 800] ------- [0:0 1:0 32 1] [10 0] 1 0
s 1.236006425 _1_ AGT  --- 33 ack 40 [0 0 0 0] ------- [1:0 0:0 32 0] [10 0] 0 0
r 1.236006425 _1_ RTR  --- 33 ack 40 [0 0 0 0] ------- [1:0 0:0 32 0] [10 0] 0 0
s 1.236006425 _1_ RTR  --- 33 ack 60 [0 0 0 0] ------- [1:0 0:0 32 0] [10 0] 0 0
r 1.236295446 _0_ MAC  --- 0 ACK 38 [0 0 0 0] 
s 1.236445425 _1_ MAC  --- 0 RTS 44 [62e 0 1 0] 
r 1.236797446 _0_ MAC  --- 0 RTS 44 [62e 0 1 0] 
s 1.236807446 _0_ MAC  --- 0 CTS 38 [4f4 1 0 0] 
r 1.237111468 _1_ MAC  --- 0 CTS 38 [4f4 1 0 0] 
s 1.237121468 _1_ MAC  --- 33 ack 118 [13a 0 1 800] ------- [1:0 0:0 32 0] [10 0] 0 0
r 1.238065490 _0_ MAC  --- 33 ack 60 [13a 0 1 800] ------- [1:0 0:0 32 0] [10 0] 1 0
s 1.238075490 _0_ MAC  --- 0 ACK 38 [0 1 0 0] 
r 1.238090490 _0_ AGT  --- 33 ack 60 [13a 0 1 800] ------- [1:0 0:0 32 0] [10 0] 1 0
s 1.238090490 _0_ AGT  --- 34 tcp 1040 [0 0 0 0] ------- [0:0 1:0 32 0] [21 0] 0 0
r 1.238090490 _0_ RTR  --- 34 tcp 1040 [0 0 0 0] ------- [0:0 1:0 32 0] [21 0] 0 0
s 1.238090490 _0_ RTR  --- 34 tcp 1060 [0 0 0 0] ------- [0:0 1:0 32 1] [21 0] 0 0
s 1.238090490 _0_ AGT  --- 35 tcp 1040 [0 0 0 0] ------- [0:0 1:0 32 0] [22 0] 0 0
r 1.238090490 _0_ RTR  --- 35 tcp 1040 [0 0 0 0] ------- [0:0 1:0 32 0] [22 0] 0 0
s 1.238090490 _0_ RTR  --- 35 tcp 1060 [0 0 0 0] ------- [0:0 1:0 32 1] [22 0] 0 0
r 1.238379511 _1_ MAC  --- 0 ACK 38 [0 1 0 0] 
s 1.238849490 _0_ MAC  --- 0 RTS 44 [256e 1 0 0] 
r 1.239201511 _1_ MAC  --- 0 RTS 44 [256e 1 0 0] 
s 1.239211511 _1_ MAC  --- 0 CTS 38 [2434 0 0 0] 
r 1.239515533 _0_ MAC  --- 0 CTS 38 [2434 0 0 0] 
s 1.239525533 _0_ MAC  --- 21 tcp 1118 [13a 1 0 800] ------- [0:0 1:0 32 1] [11 0] 0 0
r 1.248469555 _1_ MAC  --- 21 tcp 1060 [13a 1 0 800] ------- [0:0 1:0 32 1] [11 0] 1 0
s 1.248479555 _1_ MAC  --- 0 ACK 38 [0 0 0 0] 
r 1.248494555 _1_ AGT  --- 21 tcp 1060 [13a 1 0 800] ------- [0:0 1:0 32 1] [11 0] 1 0
s 1.248494555 _1_ AGT  --- 36 ack 40 [0 0 0 0] ------- [1:0 0:0 32 0] [11 0] 0 0
r 1.248494555 _1_ RTR  --- 36 ack 40 [0 0 0 0] ------- [1:0 0:0 32 0] [11 0] 0 0
s 1.248494555 _1_ RTR  --- 36 ack 60 [0 0 0 0] ------- [1:0 0:0 32 0] [11 0] 0 0
r 1.248783578 _0_ MAC  --- 0 ACK 38 [0 0 0 0] 
s 1.249033555 _1_ MAC  --- 0 RTS 44 [62e 0 1 0] 
r 1.249385578 _0_ MAC  --- 0 RTS 44 [62e 0 1 0] 
s 1.249395578 _0_ MAC  --- 0 CTS 38 [4f4 1 0 0] 
r 1.249699600 _1_ MAC  --- 0 CTS 38 [4f4 1 0 0] 
s 1.249709600 _1_ MAC  --- 36 ack 118 [13a 0 1 800] ------- [1:0 0:0 32 0] [11 0] 0 0
r 1.250653623 _0_ MAC  --- 36 ack 60 [13a 0 1 800] ------- [1:0 0:0 32 0] [11 0] 1 0
s 1.250663623 _0_ MAC  --- 0 ACK 38 [0 1 0 0] 
r 1.250678623 _0_ AGT  --- 36 ack 60 [13a 0 1 800] ------- [1:0 0:0 32 0] [11 0] 1 0
s 1.250678623 _0_ AGT  --- 37 tcp 1040 [0 0 0 0] ------- [0:0 1:0 32 0] [23 0] 0 0
r 1.250678623 _0_ RTR  --- 37 tcp 1040 [0 0 0 0] ------- [0:0 1:0 32 0] [23 0] 0 0
s 1.250678623 _0_ RTR  --- 37 tcp 1060 [0 0 0 0] ------- [0:0 1:0 32 1] [23 0] 0 0
s 1.250678623 _0_ AGT  --- 38 tcp 1040 [0 0 0 0] ------- [0:0 1:0 32 0] [24 0] 0 0
r 1.250678623 _0_ RTR  --- 38 tcp 1040 [0 0 0 0] ------- [0:0 1:0 32 0] [24 0] 0 0
s 1.250678623 _0_ RTR  --- 38 tcp 1060 [0 0 0 0] ------- [0:0 1:0 32 1] [24 0] 0 0
r 1.250967646 _1_ MAC  --- 0 ACK 38 [0 1 0 0] 
s 1.251397623 _0_ MAC  --- 0 RTS 44 [256e 1 0 0] 
r 1.251749646 _1_ MAC  --- 0 RTS 44 [256e 1 0 0] 
s 1.251759646 _1_ MAC  --- 0 CTS 38 [2434 0 0 0] 
r 1.252063669 _0_ MAC  --- 0 CTS 38 [2434 0 0 0] 
s 1.252073669 _0_ MAC  --- 22 tcp 1118 [13a 1 0 800] ------- [0:0 1:0 32 1] [12 0] 0 0
r 1.261017692 _1_ MAC  --- 22 tcp 1060 [13a 1 0 800] ------- [0:0 1:0 32 1] [12 0] 1 0
s 1.261027692 _1_ MAC  --- 0 ACK 38 [0 0 0 0] 
r 1.261042692 _1_ AGT  --- 22 tcp 1060 [13a 1 0 800] ------- [0:0 1:0 32 1] [12 0] 1 0
s 1.261042692 _1_ AGT  --- 39 ack 40 [0 0 0 0] ------- [1:0 0:0 32 0] [12 0] 0 0
r 1.261042692 _1_ RTR  --- 39 ack 40 [0 0 0 0] ------- [1:0 0:0 32 0] [12 0] 0 0
s 1.261042692 _1_ RTR  --- 39 ack 60 [0 0 0 0] ------- [1:0 0:0 32 0] [12 0] 0 0
r 1.261331716 _0_ MAC  --- 0 ACK 38 [0 0 0 0] 
s 1.261501692 _1_ MAC  --- 0 RTS 44 [62e 0 1 0] 
r 1.261853716 _0_ MAC  --- 0 RTS 44 [62e 0 1 0] 
s 1.261863716 _0_ MAC  --- 0 CTS 38 [4f4 1 0 0] 
r 1.262167740 _1_ MAC  --- 0 CTS 38 [4f4 1 0 0] 
s 1.262177740 _1_ MAC  --- 39 ack 118 [13a 0 1 800] ------- [1:0 0:0 32 0] [12 0] 0 0
r 1.263121764 _0_ MAC  --- 39 ack 60 [13a 0 1 800] ------- [1:0 0:0 32 0] [12 0] 1 0
s 1.263131764 _0_ MAC  --- 0 ACK 38 [0 1 0 0] 
r 1.263146764 _0_ AGT  --- 39 ack 60 [13a 0 1 800] ------- [1:0 0:0 32 0] [12 0] 1 0
s 1.263146764 _0_ AGT  --- 40 tcp 1040 [0 0 0 0] ------- [0:0 1:0 32 0] [25 0] 0 0
r 1.263146764 _0_ RTR  --- 40 tcp 1040 [0 0 0 0] ------- [0:0 1:0 32 0] [25 0] 0 0
s 1.263146764 _0_ RTR  --- 40 tcp 1060 [0 0 0 0] ------- [0:0 1:0 32 1] [25 0] 0 0
s 1.263146764 _0_ AGT  --- 41 tcp 1040 [0 0 0 0] ------- [0:0 1:0 32 0] [26 0] 0 0
r 1.263146764 _0_ RTR  --- 41 tcp 1040 [0 0 0 0] ------- [0:0 1:0 32 0] [26 0] 0 0
s 1.263146764 _0_ RTR  --- 41 tcp 1060 [0 0 0 0] ------- [0:0 1:0 32 1] [26 0] 0 0
r 1.263435788 _1_ MAC  --- 0 ACK 38 [0 1 0 0] 
s 1.263705764 _0_ MAC  --- 0 RTS 44 [256e 1 0 0] 
r 1.264057788 _1_ MAC  --- 0 RTS 44 [256e 1 0 0] 
s 1.264067788 _1_ MAC  --- 0 CTS 38 [2434 0 0 0] 
r 1.264371812 _0_ MAC  --- 0 CTS 38 [2434 0 0 0] 
s 1.264381812 _0_ MAC  --- 23 tcp 1118 [13a 1 0 800] ------- [0:0 1:0 32 1] [13 0] 0 0
r 1.273325836 _1_ MAC  --- 23 tcp 1060 [13a 1 0 800] ------- [0:0 1:0 32 1] [13 0] 1 0
s 1.273335836 _1_ MAC  --- 0 ACK 38 [0 0 0 0] 
r 1.273350836 _1_ AGT  --- 23 tcp 1060 [13a 1 0 800] ------- [0:0 1:0 32 1] [13 0] 1 0
s 1.273350836 _1_ AGT  --- 42 ack 40 [0 0 0 0] ------- [1:0 0:0 32 0] [13 0] 0 0
r 1.273350836 _1_ RTR  --- 42 ack 40 [0 0 0 0] ------- [1:0 0:0 32 0] [13 0] 0 0
s 1.273350836 _1_ RTR  --- 42 ack 60 [0 0 0 0] ------- [1:0 0:0 32 0] [13 0] 0 0
r 1.273639861 _0_ MAC  --- 0 ACK 38 [0 0 0 0] 
s 1.273969836 _1_ MAC  --- 0 RTS 44 [62e 0 1 0] 
s 1.273969861 _0_ MAC  --- 0 RTS 44 [256e 1 0 0] 
s 1.275215861 _0_ MAC  --- 0 RTS 44 [256e 1 0 0] 
r 1.275567886 _1_ MAC  --- 0 RTS 44 [256e 1 0 0] 
s 1.275577886 _1_ MAC  --- 0 CTS 38 [2434 0 0 0] 
r 1.275881911 _0_ MAC  --- 0 CTS 38 [2434 0 0 0] 
s 1.275891911 _0_ MAC  --- 24 tcp 1118 [13a 1 0 800] ------- [0:0 1:0 32 1] [14 0] 0 0
r 1.284835936 _1_ MAC  --- 24 tcp 1060 [13a 1 0 800] ------- [0:0 1:0 32 1] [14 0] 1 0
s 1.284845936 _1_ MAC  --- 0 ACK 38 [0 0 0 0] 
r 1.284860936 _1_ AGT  --- 24 tcp 1060 [13a 1 0 800] ------- [0:0 1:0 32 1] [14 0] 1 0
s 1.284860936 _1_ AGT  --- 43 ack 40 [0 0 0 0] ------- [1:0 0:0 32 0] [14 0] 0 0
r 1.284860936 _1_ RTR  --- 43 ack 40 [0 0 0 0] ------- [1:0 0:0 32 0] [14 0] 0 0
s 1.284860936 _1_ RTR  --- 43 ack 60 [0 0 0 0] ------- [1:0 0:0 32 0] [14 0] 0 0
r 1.285149962 _0_ MAC  --- 0 ACK 38 [0 0 0 0] 
s 1.285659936 _1_ MAC  --- 0 RTS 44 [62e 0 1 0] 
r 1.286011962 _0_ MAC  --- 0 RTS 44 [62e 0 1 0] 
s 1.286021962 _0_ MAC  --- 0 CTS 38 [4f4 1 0 0] 
r 1.286325988 _1_ MAC  --- 0 CTS 38 [4f4 1 0 0] 
s 1.286335988 _1_ MAC  --- 42 ack 118 [13a 0 1 800] ------- [1:0 0:0 32 0] [13 0] 0 0
r 1.287280015 _0_ MAC  --- 42 ack 60 [13a 0 1 800] ------- [1:0 0:0 32 0] [13 0] 1 0
s 1.287290015 _0_ MAC  --- 0 ACK 38 [0 1 0 0] 
r 1.287305015 _0_ AGT  --- 42 ack 60 [13a 0 1 800] ------- [1:0 0:0 32 0] [13 0] 1 0
s 1.287305015 _0_ AGT  --- 44 tcp 1040 [0 0 0 0] ------- [0:0 1:0 32 0] [27 0] 0 0
r 1.287305015 _0_ RTR  --- 44 tcp 1040 [0 0 0 0] ------- [0:0 1:0 32 0] [27 0] 0 0
s 1.287305015 _0_ RTR  --- 44 tcp 1060 [0 0 0 0] ------- [0:0 1:0 32 1] [27 0] 0 0
s 1.287305015 _0_ AGT  --- 45 tcp 1040 [0 0 0 0] ------- [0:0 1:0 32 0] [28 0] 0 0
r 1.287305015 _0_ RTR  --- 45 tcp 1040 [0 0 0 0] ------- [0:0 1:0 32 0] [28 0] 0 0
s 1.287305015 _0_ RTR  --- 45 tcp 1060 [0 0 0 0] ------- [0:0 1:0 32 1] [28 0] 0 0
r 1.287594041 _1_ MAC  --- 0 ACK 38 [0 1 0 0] 
s 1.287644041 _1_ MAC  --- 0 RTS 44 [62e 0 1 0] 
r 1.287996067 _0_ MAC  --- 0 RTS 44 [62e 0 1 0] 
s 1.288006067 _0_ MAC  --- 0 CTS 38 [4f4 1 0 0] 
r 1.288310093 _1_ MAC  --- 0 CTS 38 [4f4 1 0 0] 
s 1.288320093 _1_ MAC  --- 43 ack 118 [13a 0 1 800] ------- [1:0 0:0 32 0] [14 0] 0 0
r 1.289264120 _0_ MAC  --- 43 ack 60 [13a 0 1 800] ------- [1:0 0:0 32 0] [14 0] 1 0
s 1.289274120 _0_ MAC  --- 0 ACK 38 [0 1 0 0] 
r 1.289289120 _0_ AGT  --- 43 ack 60 [13a 0 1 800] ------- [1:0 0:0 32 0] [14 0] 1 0
s 1.289289120 _0_ AGT  --- 46 tcp 1040 [0 0 0 0] ------- [0:0 1:0 32 0] [29 0] 0 0
r 1.289289120 _0_ RTR  --- 46 tcp 1040 [0 0 0 0] ------- [0:0 1:0 32 0] [29 0] 0 0
s 1.289289120 _0_ RTR  --- 46 tcp 1060 [0 0 0 0] ------- [0:0 1:0 32 1] [29 0] 0 0
s 1.289289120 _0_ AGT  --- 47 tcp 1040 [0 0 0 0] ------- [0:0 1:0 32 0] [30 0] 0 0
r 1.289289120 _0_ RTR  --- 47 tcp 1040 [0 0 0 0] ------- [0:0 1:0 32 0] [30 0] 0 0
s 1.289289120 _0_ RTR  --- 47 tcp 1060 [0 0 0 0] ------- [0:0 1:0 32 1] [30 0] 0 0
r 1.289578146 _1_ MAC  --- 0 ACK 38 [0 1 0 0] 
s 1.289648120 _0_ MAC  --- 0 RTS 44 [256e 1 0 0] 
r 1.290000146 _1_ MAC  --- 0 RTS 44 [256e 1 0 0] 
s 1.290010146 _1_ MAC  --- 0 CTS 38 [2434 0 0 0] 
r 1.290314172 _0_ MAC  --- 0 CTS 38 [2434 0 0 0] 
s 1.290324172 _0_ MAC  --- 25 tcp 1118 [13a 1 0 800] ------- [0:0 1:0 32 1] [15 0] 0 0
r 1.299268199 _1_ MAC  --- 25 tcp 1060 [13a 1 0 800] ------- [0:0 1:0 32 1] [15 0] 1 0
s 1.299278199 _1_ MAC  --- 0 ACK 38 [0 0 0 0] 
r 1.299293199 _1_ AGT  --- 25 tcp 1060 [13a 1 0 800] ------- [0:0 1:0 32 1] [15 0] 1 0
s 1.299293199 _1_ AGT  --- 48 ack 40 [0 0 0 0] ------- [1:0 0:0 32 0] [15 0] 0 0
r 1.299293199 _1_ RTR  --- 48 ack 40 [0 0 0 0] ------- [1:0 0:0 32 0] [15 0] 0 0
s 1.299293199 _1_ RTR  --- 48 ack 60 [0 0 0 0] ------- [1:0 0:0 32 0] [15 0] 0 0
r 1.299582226 _0_ MAC  --- 0 ACK 38 [0 0 0 0] 